<?xml version="1.0" encoding="UTF-8"?>

<!-- generated on jue 11 ene 2018 18:36:42 -03 by SUMO gui Version 0.30.0
<?xml version="1.0" encoding="UTF-8"?>

<configuration xmlns:xsi="http://www.w3.org/2001/XMLSchema-instance" xsi:noNamespaceSchemaLocation="http://sumo.dlr.de/xsd/sumoConfiguration.xsd">

    <input>
        <net-file value="/home/alexis/git/CA_System/examples/veins/erlangen.net.xml"/>
        <route-files value="/home/alexis/git/CA_System/examples/veins/erlangen2.rou.xml"/>
    </input>

    <output>
        <tripinfo-output value="/home/alexis/git/CA_System/examples/veins/output-tripinfos.xml"/>
        <vehroute-output value="/home/alexis/git/CA_System/examples/veins/output-vehroutes.xml"/>
    </output>

    <time>
        <begin value="0"/>
        <end value="3600"/>
    </time>

    <processing>
        <route-steps value="-1"/>
        <time-to-teleport value="-1"/>
    </processing>

    <report>
        <print-options value="false"/>
    </report>

    <random_number>
        <seed value="23423"/>
    </random_number>

</configuration>
-->

<tripinfos xmlns:xsi="http://www.w3.org/2001/XMLSchema-instance" xsi:noNamespaceSchemaLocation="http://sumo.dlr.de/xsd/tripinfo_file.xsd">
    <tripinfo id="16" depart="16.00" departLane="-32302591#4_0" departPos="5.10" departSpeed="0.00" departDelay="0.00" arrival="33.00" arrivalLane="-32302591#2_0" arrivalPos="58.17" arrivalSpeed="12.93" duration="17.00" routeLength="183.37" waitSteps="0" timeLoss="3.45" rerouteNo="0" devices="vehroute_16 tripinfo_16" vType="DEFAULT_VEHTYPE" speedFactor="1.00" vaporized=""/>
    <tripinfo id="20" depart="20.00" departLane="4900739#2_0" departPos="5.10" departSpeed="0.00" departDelay="0.00" arrival="48.00" arrivalLane="31270441_0" arrivalPos="28.81" arrivalSpeed="13.57" duration="28.00" routeLength="230.39" waitSteps="0" timeLoss="5.42" rerouteNo="0" devices="vehroute_20 tripinfo_20" vType="DEFAULT_VEHTYPE" speedFactor="1.00" vaporized=""/>
    <tripinfo id="8" depart="8.00" departLane="-4006726#0_0" departPos="5.10" departSpeed="0.00" departDelay="0.00" arrival="87.00" arrivalLane="67076129_0" arrivalPos="3.96" arrivalSpeed="22.05" duration="79.00" routeLength="1071.36" waitSteps="0" timeLoss="13.55" rerouteNo="0" devices="vehroute_8 tripinfo_8" vType="DEFAULT_VEHTYPE" speedFactor="1.00" vaporized=""/>
    <tripinfo id="42" depart="42.00" departLane="8402998#1_0" departPos="5.10" departSpeed="0.00" departDelay="0.00" arrival="88.00" arrivalLane="29900565#3_0" arrivalPos="121.16" arrivalSpeed="6.63" duration="46.00" routeLength="324.29" waitSteps="0" timeLoss="7.05" rerouteNo="0" devices="vehroute_42 tripinfo_42" vType="DEFAULT_VEHTYPE" speedFactor="1.00" vaporized=""/>
    <tripinfo id="18" depart="18.00" departLane="4006688#0_0" departPos="5.10" departSpeed="0.00" departDelay="0.00" arrival="92.00" arrivalLane="29900564#4_0" arrivalPos="26.72" arrivalSpeed="7.60" duration="74.00" routeLength="629.44" waitSteps="0" timeLoss="8.51" rerouteNo="0" devices="vehroute_18 tripinfo_18" vType="DEFAULT_VEHTYPE" speedFactor="1.00" vaporized=""/>
    <tripinfo id="23" depart="23.00" departLane="31401017#1_0" departPos="5.10" departSpeed="0.00" departDelay="0.00" arrival="93.00" arrivalLane="8403007_0" arrivalPos="76.72" arrivalSpeed="12.93" duration="70.00" routeLength="698.19" waitSteps="0" timeLoss="8.12" rerouteNo="0" devices="vehroute_23 tripinfo_23" vType="DEFAULT_VEHTYPE" speedFactor="1.00" vaporized=""/>
    <tripinfo id="45" depart="45.00" departLane="-3998613#0_0" departPos="5.10" departSpeed="0.00" departDelay="0.00" arrival="99.00" arrivalLane="-41973977_0" arrivalPos="18.23" arrivalSpeed="12.04" duration="54.00" routeLength="606.76" waitSteps="0" timeLoss="9.92" rerouteNo="0" devices="vehroute_45 tripinfo_45" vType="DEFAULT_VEHTYPE" speedFactor="1.00" vaporized=""/>
    <tripinfo id="55" depart="55.00" departLane="4006687_0" departPos="5.10" departSpeed="0.00" departDelay="0.00" arrival="101.00" arrivalLane="-8402998#0_0" arrivalPos="110.71" arrivalSpeed="8.17" duration="46.00" routeLength="444.33" waitSteps="0" timeLoss="7.73" rerouteNo="0" devices="vehroute_55 tripinfo_55" vType="DEFAULT_VEHTYPE" speedFactor="1.00" vaporized=""/>
    <tripinfo id="36" depart="36.00" departLane="3998615#2_0" departPos="5.10" departSpeed="0.00" departDelay="0.00" arrival="105.00" arrivalLane="3998612#1_0" arrivalPos="162.52" arrivalSpeed="13.49" duration="69.00" routeLength="810.05" waitSteps="0" timeLoss="9.36" rerouteNo="0" devices="vehroute_36 tripinfo_36" vType="DEFAULT_VEHTYPE" speedFactor="1.00" vaporized=""/>
    <tripinfo id="63" depart="63.00" departLane="10425128#0_0" departPos="5.10" departSpeed="0.00" departDelay="0.00" arrival="105.00" arrivalLane="-4006693#0_0" arrivalPos="121.28" arrivalSpeed="13.73" duration="42.00" routeLength="436.03" waitSteps="0" timeLoss="4.74" rerouteNo="0" devices="vehroute_63 tripinfo_63" vType="DEFAULT_VEHTYPE" speedFactor="1.00" vaporized=""/>
    <tripinfo id="6" depart="6.00" departLane="85355912_0" departPos="5.10" departSpeed="0.00" departDelay="0.00" arrival="107.00" arrivalLane="31241838#0_0" arrivalPos="20.95" arrivalSpeed="20.96" duration="101.00" routeLength="1611.40" waitSteps="0" timeLoss="9.72" rerouteNo="0" devices="vehroute_6 tripinfo_6" vType="DEFAULT_VEHTYPE" speedFactor="1.00" vaporized=""/>
    <tripinfo id="19" depart="19.00" departLane="31241855#0_0" departPos="5.10" departSpeed="0.00" departDelay="0.00" arrival="109.00" arrivalLane="-28613734_0" arrivalPos="320.88" arrivalSpeed="21.55" duration="90.00" routeLength="1655.94" waitSteps="0" timeLoss="14.54" rerouteNo="0" devices="vehroute_19 tripinfo_19" vType="DEFAULT_VEHTYPE" speedFactor="1.00" vaporized=""/>
    <tripinfo id="2" depart="2.00" departLane="-8402997_0" departPos="5.10" departSpeed="0.00" departDelay="0.00" arrival="111.00" arrivalLane="-3998645#1_0" arrivalPos="278.46" arrivalSpeed="13.59" duration="109.00" routeLength="1330.59" waitSteps="0" timeLoss="15.06" rerouteNo="0" devices="vehroute_2 tripinfo_2" vType="DEFAULT_VEHTYPE" speedFactor="1.00" vaporized=""/>
    <tripinfo id="52" depart="52.00" departLane="-32302591#2_0" departPos="5.10" departSpeed="0.00" departDelay="0.00" arrival="114.00" arrivalLane="31353573#0_0" arrivalPos="125.95" arrivalSpeed="13.77" duration="62.00" routeLength="760.18" waitSteps="0" timeLoss="7.06" rerouteNo="0" devices="vehroute_52 tripinfo_52" vType="DEFAULT_VEHTYPE" speedFactor="1.00" vaporized=""/>
    <tripinfo id="12" depart="12.00" departLane="-31255203#0_0" departPos="5.10" departSpeed="0.00" departDelay="0.00" arrival="115.00" arrivalLane="-4006725#0_0" arrivalPos="142.27" arrivalSpeed="13.20" duration="103.00" routeLength="1244.58" waitSteps="0" timeLoss="17.58" rerouteNo="0" devices="vehroute_12 tripinfo_12" vType="DEFAULT_VEHTYPE" speedFactor="1.00" vaporized=""/>
    <tripinfo id="84" depart="84.00" departLane="-4006674#1_0" departPos="5.10" departSpeed="0.00" departDelay="0.00" arrival="117.00" arrivalLane="-32270592#0_0" arrivalPos="46.18" arrivalSpeed="7.79" duration="33.00" routeLength="237.41" waitSteps="0" timeLoss="4.28" rerouteNo="0" devices="vehroute_84 tripinfo_84" vType="DEFAULT_VEHTYPE" speedFactor="1.00" vaporized=""/>
    <tripinfo id="17" depart="17.00" departLane="-31777493#0_0" departPos="5.10" departSpeed="0.00" departDelay="0.00" arrival="118.00" arrivalLane="-8403001_0" arrivalPos="62.61" arrivalSpeed="13.29" duration="101.00" routeLength="1173.22" waitSteps="0" timeLoss="10.15" rerouteNo="0" devices="vehroute_17 tripinfo_17" vType="DEFAULT_VEHTYPE" speedFactor="1.00" vaporized=""/>
    <tripinfo id="29" depart="29.00" departLane="31241835#0_0" departPos="5.10" departSpeed="0.00" departDelay="0.00" arrival="119.00" arrivalLane="-3013106#0_0" arrivalPos="206.05" arrivalSpeed="13.34" duration="90.00" routeLength="966.91" waitSteps="2" timeLoss="32.70" rerouteNo="0" devices="vehroute_29 tripinfo_29" vType="DEFAULT_VEHTYPE" speedFactor="1.00" vaporized=""/>
    <tripinfo id="77" depart="77.00" departLane="4900041#3_0" departPos="5.10" departSpeed="0.00" departDelay="0.00" arrival="121.00" arrivalLane="4006702#2_0" arrivalPos="326.51" arrivalSpeed="13.58" duration="44.00" routeLength="510.39" waitSteps="0" timeLoss="6.65" rerouteNo="0" devices="vehroute_77 tripinfo_77" vType="DEFAULT_VEHTYPE" speedFactor="1.00" vaporized=""/>
    <tripinfo id="71" depart="71.00" departLane="-23605600#2_0" departPos="5.10" departSpeed="0.00" departDelay="0.00" arrival="122.00" arrivalLane="-4006688#2_0" arrivalPos="27.66" arrivalSpeed="13.30" duration="51.00" routeLength="425.52" waitSteps="0" timeLoss="6.38" rerouteNo="0" devices="vehroute_71 tripinfo_71" vType="DEFAULT_VEHTYPE" speedFactor="1.00" vaporized=""/>
    <tripinfo id="73" depart="73.00" departLane="9643180_0" departPos="5.10" departSpeed="0.00" departDelay="0.00" arrival="124.00" arrivalLane="-4006687_0" arrivalPos="195.47" arrivalSpeed="12.89" duration="51.00" routeLength="497.54" waitSteps="0" timeLoss="6.90" rerouteNo="0" devices="vehroute_73 tripinfo_73" vType="DEFAULT_VEHTYPE" speedFactor="1.00" vaporized=""/>
    <tripinfo id="21" depart="21.00" departLane="4006725#0_0" departPos="5.10" departSpeed="0.00" departDelay="0.00" arrival="125.00" arrivalLane="-31241838#0_0" arrivalPos="18.39" arrivalSpeed="21.76" duration="104.00" routeLength="1345.07" waitSteps="0" timeLoss="14.39" rerouteNo="0" devices="vehroute_21 tripinfo_21" vType="DEFAULT_VEHTYPE" speedFactor="1.00" vaporized=""/>
    <tripinfo id="33" depart="33.00" departLane="-10712013_0" departPos="5.10" departSpeed="0.00" departDelay="0.00" arrival="127.00" arrivalLane="-29900564#5_0" arrivalPos="76.03" arrivalSpeed="7.93" duration="94.00" routeLength="760.20" waitSteps="0" timeLoss="12.10" rerouteNo="0" devices="vehroute_33 tripinfo_33" vType="DEFAULT_VEHTYPE" speedFactor="1.00" vaporized=""/>
    <tripinfo id="43" depart="43.00" departLane="-32302591#3_0" departPos="5.10" departSpeed="0.00" departDelay="0.00" arrival="128.00" arrivalLane="-23605600#0_0" arrivalPos="249.77" arrivalSpeed="7.32" duration="85.00" routeLength="695.10" waitSteps="0" timeLoss="9.54" rerouteNo="0" devices="vehroute_43 tripinfo_43" vType="DEFAULT_VEHTYPE" speedFactor="1.00" vaporized=""/>
    <tripinfo id="34" depart="34.00" departLane="-31255203#0_0" departPos="5.10" departSpeed="0.00" departDelay="0.00" arrival="129.00" arrivalLane="4006705#2_0" arrivalPos="136.09" arrivalSpeed="13.76" duration="95.00" routeLength="1205.37" waitSteps="0" timeLoss="11.95" rerouteNo="0" devices="vehroute_34 tripinfo_34" vType="DEFAULT_VEHTYPE" speedFactor="1.00" vaporized=""/>
    <tripinfo id="61" depart="61.00" departLane="31401017#2_0" departPos="5.10" departSpeed="0.00" departDelay="0.00" arrival="132.00" arrivalLane="-4006688#3_0" arrivalPos="57.68" arrivalSpeed="12.62" duration="71.00" routeLength="601.50" waitSteps="0" timeLoss="10.07" rerouteNo="0" devices="vehroute_61 tripinfo_61" vType="DEFAULT_VEHTYPE" speedFactor="1.00" vaporized=""/>
    <tripinfo id="4" depart="4.00" departLane="10419402_0" departPos="5.10" departSpeed="0.00" departDelay="0.00" arrival="135.00" arrivalLane="-29900565#3_0" arrivalPos="121.99" arrivalSpeed="8.11" duration="131.00" routeLength="1282.45" waitSteps="0" timeLoss="19.25" rerouteNo="0" devices="vehroute_4 tripinfo_4" vType="DEFAULT_VEHTYPE" speedFactor="1.00" vaporized=""/>
    <tripinfo id="51" depart="52.00" departLane="94344940#0_0" departPos="5.10" departSpeed="0.00" departDelay="1.00" arrival="135.00" arrivalLane="31241855#1_0" arrivalPos="92.04" arrivalSpeed="20.98" duration="83.00" routeLength="1322.65" waitSteps="0" timeLoss="22.33" rerouteNo="0" devices="vehroute_51 tripinfo_51" vType="DEFAULT_VEHTYPE" speedFactor="1.00" vaporized=""/>
    <tripinfo id="94" depart="94.00" departLane="4900741_0" departPos="5.10" departSpeed="0.00" departDelay="0.00" arrival="136.00" arrivalLane="30350445_1" arrivalPos="89.08" arrivalSpeed="13.73" duration="42.00" routeLength="509.37" waitSteps="0" timeLoss="5.20" rerouteNo="0" devices="vehroute_94 tripinfo_94" vType="DEFAULT_VEHTYPE" speedFactor="1.00" vaporized=""/>
    <tripinfo id="104" depart="106.00" departLane="-94344940#2_0" departPos="5.10" departSpeed="0.00" departDelay="2.00" arrival="137.00" arrivalLane="28631632_0" arrivalPos="250.29" arrivalSpeed="21.39" duration="31.00" routeLength="541.82" waitSteps="0" timeLoss="6.03" rerouteNo="0" devices="vehroute_104 tripinfo_104" vType="DEFAULT_VEHTYPE" speedFactor="1.00" vaporized=""/>
    <tripinfo id="35" depart="35.00" departLane="30350448_0" departPos="5.10" departSpeed="0.00" departDelay="0.00" arrival="138.00" arrivalLane="31401017#1_0" arrivalPos="130.00" arrivalSpeed="7.50" duration="103.00" routeLength="1196.11" waitSteps="0" timeLoss="10.01" rerouteNo="0" devices="vehroute_35 tripinfo_35" vType="DEFAULT_VEHTYPE" speedFactor="1.00" vaporized=""/>
    <tripinfo id="9" depart="9.00" departLane="31241855#1_0" departPos="5.10" departSpeed="0.00" departDelay="0.00" arrival="140.00" arrivalLane="4690348_0" arrivalPos="86.96" arrivalSpeed="13.17" duration="131.00" routeLength="1801.78" waitSteps="0" timeLoss="23.01" rerouteNo="0" devices="vehroute_9 tripinfo_9" vType="DEFAULT_VEHTYPE" speedFactor="1.00" vaporized=""/>
    <tripinfo id="69" depart="69.00" departLane="-32302591#1_0" departPos="5.10" departSpeed="0.00" departDelay="0.00" arrival="142.00" arrivalLane="8402998#2_0" arrivalPos="80.34" arrivalSpeed="7.92" duration="73.00" routeLength="823.52" waitSteps="0" timeLoss="6.49" rerouteNo="0" devices="vehroute_69 tripinfo_69" vType="DEFAULT_VEHTYPE" speedFactor="1.00" vaporized=""/>
    <tripinfo id="93" depart="93.00" departLane="-3013106#1_0" departPos="5.10" departSpeed="0.00" departDelay="0.00" arrival="143.00" arrivalLane="-31241855#1_0" arrivalPos="92.04" arrivalSpeed="21.84" duration="50.00" routeLength="754.76" waitSteps="0" timeLoss="7.03" rerouteNo="0" devices="vehroute_93 tripinfo_93" vType="DEFAULT_VEHTYPE" speedFactor="1.00" vaporized=""/>
    <tripinfo id="80" depart="80.00" departLane="3998645#2_0" departPos="5.10" departSpeed="0.00" departDelay="0.00" arrival="147.00" arrivalLane="-3013106#1_0" arrivalPos="36.50" arrivalSpeed="12.82" duration="67.00" routeLength="918.04" waitSteps="0" timeLoss="7.66" rerouteNo="0" devices="vehroute_80 tripinfo_80" vType="DEFAULT_VEHTYPE" speedFactor="1.00" vaporized=""/>
    <tripinfo id="44" depart="44.00" departLane="32302591#1_0" departPos="5.10" departSpeed="0.00" departDelay="0.00" arrival="149.00" arrivalLane="23605595_0" arrivalPos="153.92" arrivalSpeed="13.72" duration="105.00" routeLength="1127.89" waitSteps="0" timeLoss="10.92" rerouteNo="0" devices="vehroute_44 tripinfo_44" vType="DEFAULT_VEHTYPE" speedFactor="1.00" vaporized=""/>
    <tripinfo id="109" depart="109.00" departLane="-31777493#0_0" departPos="5.10" departSpeed="0.00" departDelay="0.00" arrival="152.00" arrivalLane="26188722_0" arrivalPos="256.66" arrivalSpeed="13.65" duration="43.00" routeLength="423.90" waitSteps="0" timeLoss="5.82" rerouteNo="0" devices="vehroute_109 tripinfo_109" vType="DEFAULT_VEHTYPE" speedFactor="1.00" vaporized=""/>
    <tripinfo id="95" depart="95.00" departLane="9643180_0" departPos="5.10" departSpeed="0.00" departDelay="0.00" arrival="155.00" arrivalLane="4006688#1_0" arrivalPos="17.58" arrivalSpeed="12.64" duration="60.00" routeLength="558.64" waitSteps="0" timeLoss="7.03" rerouteNo="0" devices="vehroute_95 tripinfo_95" vType="DEFAULT_VEHTYPE" speedFactor="1.00" vaporized=""/>
    <tripinfo id="26" depart="26.00" departLane="4900041#2_0" departPos="5.10" departSpeed="0.00" departDelay="0.00" arrival="158.00" arrivalLane="25472299_0" arrivalPos="36.90" arrivalSpeed="12.68" duration="132.00" routeLength="1560.49" waitSteps="3" timeLoss="28.93" rerouteNo="0" devices="vehroute_26 tripinfo_26" vType="DEFAULT_VEHTYPE" speedFactor="1.00" vaporized=""/>
    <tripinfo id="7" depart="7.00" departLane="-4099270#0_0" departPos="5.10" departSpeed="0.00" departDelay="0.00" arrival="158.00" arrivalLane="-35842306#0_0" arrivalPos="21.01" arrivalSpeed="13.29" duration="151.00" routeLength="1431.71" waitSteps="23" timeLoss="47.96" rerouteNo="0" devices="vehroute_7 tripinfo_7" vType="DEFAULT_VEHTYPE" speedFactor="1.00" vaporized=""/>
    <tripinfo id="86" depart="86.00" departLane="31777493#1_0" departPos="5.10" departSpeed="0.00" departDelay="0.00" arrival="160.00" arrivalLane="31982182#0_0" arrivalPos="792.73" arrivalSpeed="26.84" duration="74.00" routeLength="1137.92" waitSteps="1" timeLoss="16.51" rerouteNo="0" devices="vehroute_86 tripinfo_86" vType="DEFAULT_VEHTYPE" speedFactor="1.00" vaporized=""/>
    <tripinfo id="76" depart="76.00" departLane="-31241838#1_0" departPos="5.10" departSpeed="0.00" departDelay="0.00" arrival="161.00" arrivalLane="-28269598_0" arrivalPos="183.85" arrivalSpeed="13.12" duration="85.00" routeLength="1072.48" waitSteps="0" timeLoss="16.80" rerouteNo="0" devices="vehroute_76 tripinfo_76" vType="DEFAULT_VEHTYPE" speedFactor="1.00" vaporized=""/>
    <tripinfo id="50" depart="50.00" departLane="-4006690_0" departPos="5.10" departSpeed="0.00" departDelay="0.00" arrival="162.00" arrivalLane="4686970#1_1" arrivalPos="17.68" arrivalSpeed="13.54" duration="112.00" routeLength="970.10" waitSteps="3" timeLoss="17.65" rerouteNo="0" devices="vehroute_50 tripinfo_50" vType="DEFAULT_VEHTYPE" speedFactor="1.00" vaporized=""/>
    <tripinfo id="31" depart="31.00" departLane="4047446#1_0" departPos="5.10" departSpeed="0.00" departDelay="0.00" arrival="162.00" arrivalLane="-4006683_0" arrivalPos="270.05" arrivalSpeed="7.78" duration="131.00" routeLength="1314.48" waitSteps="0" timeLoss="11.88" rerouteNo="0" devices="vehroute_31 tripinfo_31" vType="DEFAULT_VEHTYPE" speedFactor="1.00" vaporized=""/>
    <tripinfo id="3" depart="3.00" departLane="32302591#0_0" departPos="5.10" departSpeed="0.00" departDelay="0.00" arrival="163.00" arrivalLane="-4006726#0_0" arrivalPos="281.67" arrivalSpeed="12.80" duration="160.00" routeLength="1992.80" waitSteps="0" timeLoss="18.25" rerouteNo="0" devices="vehroute_3 tripinfo_3" vType="DEFAULT_VEHTYPE" speedFactor="1.00" vaporized=""/>
    <tripinfo id="47" depart="47.00" departLane="4006726#1_0" departPos="5.10" departSpeed="0.00" departDelay="0.00" arrival="165.00" arrivalLane="4686970#1_1" arrivalPos="17.68" arrivalSpeed="13.83" duration="118.00" routeLength="1321.02" waitSteps="4" timeLoss="21.99" rerouteNo="0" devices="vehroute_47 tripinfo_47" vType="DEFAULT_VEHTYPE" speedFactor="1.00" vaporized=""/>
    <tripinfo id="22" depart="22.00" departLane="25472257_0" departPos="5.10" departSpeed="0.00" departDelay="0.00" arrival="166.00" arrivalLane="-4006683_0" arrivalPos="270.05" arrivalSpeed="7.68" duration="144.00" routeLength="1444.68" waitSteps="0" timeLoss="16.02" rerouteNo="0" devices="vehroute_22 tripinfo_22" vType="DEFAULT_VEHTYPE" speedFactor="1.00" vaporized=""/>
    <tripinfo id="24" depart="24.00" departLane="-3998645#0_0" departPos="5.10" departSpeed="0.00" departDelay="0.00" arrival="166.00" arrivalLane="-8402998#0_0" arrivalPos="110.71" arrivalSpeed="7.17" duration="142.00" routeLength="1678.12" waitSteps="0" timeLoss="14.87" rerouteNo="0" devices="vehroute_24 tripinfo_24" vType="DEFAULT_VEHTYPE" speedFactor="1.00" vaporized=""/>
    <tripinfo id="105" depart="105.00" departLane="4900041#1_0" departPos="5.10" departSpeed="0.00" departDelay="0.00" arrival="169.00" arrivalLane="-4006703#1_0" arrivalPos="40.55" arrivalSpeed="13.19" duration="64.00" routeLength="788.31" waitSteps="0" timeLoss="6.68" rerouteNo="0" devices="vehroute_105 tripinfo_105" vType="DEFAULT_VEHTYPE" speedFactor="1.00" vaporized=""/>
    <tripinfo id="56" depart="56.00" departLane="-4006688#3_0" departPos="5.10" departSpeed="0.00" departDelay="0.00" arrival="170.00" arrivalLane="10419402_0" arrivalPos="294.06" arrivalSpeed="12.99" duration="114.00" routeLength="1259.01" waitSteps="0" timeLoss="10.52" rerouteNo="0" devices="vehroute_56 tripinfo_56" vType="DEFAULT_VEHTYPE" speedFactor="1.00" vaporized=""/>
    <tripinfo id="97" depart="102.00" departLane="28613737_0" departPos="5.10" departSpeed="0.00" departDelay="5.00" arrival="171.00" arrivalLane="25472134_0" arrivalPos="30.98" arrivalSpeed="20.78" duration="69.00" routeLength="984.74" waitSteps="0" timeLoss="9.29" rerouteNo="0" devices="vehroute_97 tripinfo_97" vType="DEFAULT_VEHTYPE" speedFactor="1.00" vaporized=""/>
    <tripinfo id="147" depart="147.00" departLane="-29900567_0" departPos="5.10" departSpeed="0.00" departDelay="0.00" arrival="174.00" arrivalLane="23605600#2_0" arrivalPos="76.56" arrivalSpeed="7.35" duration="27.00" routeLength="187.56" waitSteps="0" timeLoss="3.93" rerouteNo="0" devices="vehroute_147 tripinfo_147" vType="DEFAULT_VEHTYPE" speedFactor="1.00" vaporized=""/>
    <tripinfo id="85" depart="85.00" departLane="4006724#1_0" departPos="5.10" departSpeed="0.00" departDelay="0.00" arrival="175.00" arrivalLane="-31241816#1_0" arrivalPos="46.54" arrivalSpeed="18.25" duration="90.00" routeLength="1174.35" waitSteps="0" timeLoss="14.46" rerouteNo="0" devices="vehroute_85 tripinfo_85" vType="DEFAULT_VEHTYPE" speedFactor="1.00" vaporized=""/>
    <tripinfo id="53" depart="53.00" departLane="85355912_0" departPos="5.10" departSpeed="0.00" departDelay="0.00" arrival="179.00" arrivalLane="31241834#0_0" arrivalPos="119.30" arrivalSpeed="21.30" duration="126.00" routeLength="1949.88" waitSteps="0" timeLoss="19.06" rerouteNo="0" devices="vehroute_53 tripinfo_53" vType="DEFAULT_VEHTYPE" speedFactor="1.00" vaporized=""/>
    <tripinfo id="54" depart="54.00" departLane="-3998615#1_0" departPos="5.10" departSpeed="0.00" departDelay="0.00" arrival="180.00" arrivalLane="4900739#2_0" arrivalPos="14.94" arrivalSpeed="13.67" duration="126.00" routeLength="1505.00" waitSteps="11" timeLoss="27.90" rerouteNo="0" devices="vehroute_54 tripinfo_54" vType="DEFAULT_VEHTYPE" speedFactor="1.00" vaporized=""/>
    <tripinfo id="5" depart="5.00" departLane="-31255203#0_0" departPos="5.10" departSpeed="0.00" departDelay="0.00" arrival="184.00" arrivalLane="-125685391_0" arrivalPos="349.43" arrivalSpeed="13.69" duration="179.00" routeLength="2406.25" waitSteps="0" timeLoss="19.46" rerouteNo="0" devices="vehroute_5 tripinfo_5" vType="DEFAULT_VEHTYPE" speedFactor="1.00" vaporized=""/>
    <tripinfo id="57" depart="57.00" departLane="32302591#5_0" departPos="5.10" departSpeed="0.00" departDelay="0.00" arrival="184.00" arrivalLane="31241853#2_0" arrivalPos="53.76" arrivalSpeed="21.06" duration="127.00" routeLength="1832.63" waitSteps="0" timeLoss="12.78" rerouteNo="0" devices="vehroute_57 tripinfo_57" vType="DEFAULT_VEHTYPE" speedFactor="1.00" vaporized=""/>
    <tripinfo id="140" depart="142.00" departLane="8402997_0" departPos="5.10" departSpeed="0.00" departDelay="2.00" arrival="187.00" arrivalLane="29900565#3_0" arrivalPos="121.16" arrivalSpeed="7.56" duration="45.00" routeLength="360.28" waitSteps="0" timeLoss="6.68" rerouteNo="0" devices="vehroute_140 tripinfo_140" vType="DEFAULT_VEHTYPE" speedFactor="1.00" vaporized=""/>
    <tripinfo id="38" depart="38.00" departLane="113939242#1_0" departPos="5.10" departSpeed="0.00" departDelay="0.00" arrival="190.00" arrivalLane="4686970#1_1" arrivalPos="17.68" arrivalSpeed="13.84" duration="152.00" routeLength="2489.62" waitSteps="2" timeLoss="23.42" rerouteNo="0" devices="vehroute_38 tripinfo_38" vType="DEFAULT_VEHTYPE" speedFactor="1.00" vaporized=""/>
    <tripinfo id="46" depart="46.00" departLane="-28613727#1_0" departPos="5.10" departSpeed="0.00" departDelay="0.00" arrival="190.00" arrivalLane="-3998645#2_0" arrivalPos="148.51" arrivalSpeed="13.64" duration="144.00" routeLength="1952.13" waitSteps="0" timeLoss="25.35" rerouteNo="0" devices="vehroute_46 tripinfo_46" vType="DEFAULT_VEHTYPE" speedFactor="1.00" vaporized=""/>
    <tripinfo id="28" depart="28.00" departLane="-31241853#1_0" departPos="5.10" departSpeed="0.00" departDelay="0.00" arrival="192.00" arrivalLane="32270595_0" arrivalPos="120.55" arrivalSpeed="5.23" duration="164.00" routeLength="2091.13" waitSteps="7" timeLoss="34.35" rerouteNo="0" devices="vehroute_28 tripinfo_28" vType="DEFAULT_VEHTYPE" speedFactor="1.00" vaporized=""/>
    <tripinfo id="27" depart="27.00" departLane="31241848_0" departPos="5.10" departSpeed="0.00" departDelay="0.00" arrival="192.00" arrivalLane="41973977_0" arrivalPos="18.22" arrivalSpeed="12.60" duration="165.00" routeLength="1776.90" waitSteps="7" timeLoss="45.79" rerouteNo="0" devices="vehroute_27 tripinfo_27" vType="DEFAULT_VEHTYPE" speedFactor="1.00" vaporized=""/>
    <tripinfo id="37" depart="37.00" departLane="4006687_0" departPos="5.10" departSpeed="0.00" departDelay="0.00" arrival="193.00" arrivalLane="4319349_0" arrivalPos="66.29" arrivalSpeed="16.50" duration="156.00" routeLength="2052.55" waitSteps="2" timeLoss="22.88" rerouteNo="0" devices="vehroute_37 tripinfo_37" vType="DEFAULT_VEHTYPE" speedFactor="1.00" vaporized=""/>
    <tripinfo id="83" depart="83.00" departLane="32302591#2_0" departPos="5.10" departSpeed="0.00" departDelay="0.00" arrival="193.00" arrivalLane="-3998643#2_0" arrivalPos="102.82" arrivalSpeed="13.13" duration="110.00" routeLength="1454.66" waitSteps="0" timeLoss="11.34" rerouteNo="0" devices="vehroute_83 tripinfo_83" vType="DEFAULT_VEHTYPE" speedFactor="1.00" vaporized=""/>
    <tripinfo id="65" depart="65.00" departLane="-32270592#1_0" departPos="5.10" departSpeed="0.00" departDelay="0.00" arrival="193.00" arrivalLane="-29900565#2_0" arrivalPos="60.27" arrivalSpeed="7.16" duration="128.00" routeLength="1022.39" waitSteps="1" timeLoss="21.04" rerouteNo="0" devices="vehroute_65 tripinfo_65" vType="DEFAULT_VEHTYPE" speedFactor="1.00" vaporized=""/>
    <tripinfo id="66" depart="66.00" departLane="-26188722_0" departPos="5.10" departSpeed="0.00" departDelay="0.00" arrival="195.00" arrivalLane="-9643180_0" arrivalPos="126.51" arrivalSpeed="7.38" duration="129.00" routeLength="1369.06" waitSteps="2" timeLoss="20.80" rerouteNo="0" devices="vehroute_66 tripinfo_66" vType="DEFAULT_VEHTYPE" speedFactor="1.00" vaporized=""/>
    <tripinfo id="0" depart="0.00" departLane="31241835#1_0" departPos="5.10" departSpeed="0.00" departDelay="0.00" arrival="195.00" arrivalLane="10712013_0" arrivalPos="81.45" arrivalSpeed="13.48" duration="195.00" routeLength="2434.78" waitSteps="16" timeLoss="43.35" rerouteNo="0" devices="vehroute_0 tripinfo_0" vType="DEFAULT_VEHTYPE" speedFactor="1.00" vaporized=""/>
    <tripinfo id="118" depart="118.00" departLane="23350930_0" departPos="5.10" departSpeed="0.00" departDelay="0.00" arrival="198.00" arrivalLane="31241834#0_0" arrivalPos="119.30" arrivalSpeed="21.27" duration="80.00" routeLength="1027.10" waitSteps="0" timeLoss="22.03" rerouteNo="0" devices="vehroute_118 tripinfo_118" vType="DEFAULT_VEHTYPE" speedFactor="1.00" vaporized=""/>
    <tripinfo id="72" depart="72.00" departLane="-4006691_0" departPos="5.10" departSpeed="0.00" departDelay="0.00" arrival="199.00" arrivalLane="-125685391_0" arrivalPos="349.43" arrivalSpeed="13.18" duration="127.00" routeLength="1269.87" waitSteps="0" timeLoss="13.13" rerouteNo="0" devices="vehroute_72 tripinfo_72" vType="DEFAULT_VEHTYPE" speedFactor="1.00" vaporized=""/>
    <tripinfo id="89" depart="89.00" departLane="-94344940#3_0" departPos="5.10" departSpeed="0.00" departDelay="0.00" arrival="203.00" arrivalLane="44069041#0_0" arrivalPos="139.67" arrivalSpeed="16.53" duration="114.00" routeLength="1694.01" waitSteps="4" timeLoss="22.02" rerouteNo="0" devices="vehroute_89 tripinfo_89" vType="DEFAULT_VEHTYPE" speedFactor="1.00" vaporized=""/>
    <tripinfo id="159" depart="163.00" departLane="-4006688#4_0" departPos="5.10" departSpeed="0.00" departDelay="4.00" arrival="207.00" arrivalLane="-32302591#5_0" arrivalPos="124.46" arrivalSpeed="13.48" duration="44.00" routeLength="501.60" waitSteps="0" timeLoss="7.47" rerouteNo="0" devices="vehroute_159 tripinfo_159" vType="DEFAULT_VEHTYPE" speedFactor="1.00" vaporized=""/>
    <tripinfo id="129" depart="129.00" departLane="-31241816#1_0" departPos="5.10" departSpeed="0.00" departDelay="0.00" arrival="210.00" arrivalLane="-3013106#0_0" arrivalPos="206.05" arrivalSpeed="13.29" duration="81.00" routeLength="902.01" waitSteps="4" timeLoss="26.27" rerouteNo="0" devices="vehroute_129 tripinfo_129" vType="DEFAULT_VEHTYPE" speedFactor="1.00" vaporized=""/>
    <tripinfo id="138" depart="142.00" departLane="4686970#1_0" departPos="5.10" departSpeed="0.00" departDelay="4.00" arrival="211.00" arrivalLane="4047241_0" arrivalPos="370.93" arrivalSpeed="22.02" duration="69.00" routeLength="1350.77" waitSteps="0" timeLoss="11.55" rerouteNo="0" devices="vehroute_138 tripinfo_138" vType="DEFAULT_VEHTYPE" speedFactor="1.00" vaporized=""/>
    <tripinfo id="201" depart="201.00" departLane="23350929_0" departPos="5.10" departSpeed="0.00" departDelay="0.00" arrival="213.00" arrivalLane="4900041#1_0" arrivalPos="9.76" arrivalSpeed="12.74" duration="12.00" routeLength="97.61" waitSteps="0" timeLoss="4.90" rerouteNo="0" devices="vehroute_201 tripinfo_201" vType="DEFAULT_VEHTYPE" speedFactor="1.00" vaporized=""/>
    <tripinfo id="133" depart="133.00" departLane="-31401017#1_0" departPos="5.10" departSpeed="0.00" departDelay="0.00" arrival="215.00" arrivalLane="33174302#1_0" arrivalPos="108.70" arrivalSpeed="13.80" duration="82.00" routeLength="903.66" waitSteps="0" timeLoss="10.18" rerouteNo="0" devices="vehroute_133 tripinfo_133" vType="DEFAULT_VEHTYPE" speedFactor="1.00" vaporized=""/>
    <tripinfo id="98" depart="98.00" departLane="122161381_0" departPos="5.10" departSpeed="0.00" departDelay="0.00" arrival="215.00" arrivalLane="-9643180_0" arrivalPos="126.51" arrivalSpeed="8.05" duration="117.00" routeLength="995.81" waitSteps="23" timeLoss="36.39" rerouteNo="0" devices="vehroute_98 tripinfo_98" vType="DEFAULT_VEHTYPE" speedFactor="1.00" vaporized=""/>