<?xml version="1.0" encoding="UTF-8"?>

<!-- generated on vie 03 ago 2018 12:55:49 -04 by SUMO gui Version 0.30.0
<?xml version="1.0" encoding="UTF-8"?>

<configuration xmlns:xsi="http://www.w3.org/2001/XMLSchema-instance" xsi:noNamespaceSchemaLocation="http://sumo.dlr.de/xsd/sumoConfiguration.xsd">

    <input>
        <net-file value="/home/aware/git/CA_System/src/networks/LuST_Scenario/lust.net.xml"/>
        <route-files value="/home/aware/git/CA_System/src/networks/LuST_Scenario/buslines.rou.xml,/home/aware/git/CA_System/src/networks/LuST_Scenario/DUARoutes/local.0.rou.xml,/home/aware/git/CA_System/src/networks/LuST_Scenario/DUARoutes/local.1.rou.xml,/home/aware/git/CA_System/src/networks/LuST_Scenario/DUARoutes/local.2.rou.xml,/home/aware/git/CA_System/src/networks/LuST_Scenario/transit.rou.xml"/>
        <additional-files value="/home/aware/git/CA_System/src/networks/LuST_Scenario/vtypes.add.xml,/home/aware/git/CA_System/src/networks/LuST_Scenario/busstops.add.xml,/home/aware/git/CA_System/src/networks/LuST_Scenario/e1detectors.add.xml,/home/aware/git/CA_System/src/networks/LuST_Scenario/lust.poly.xml,/home/aware/git/CA_System/src/networks/LuST_Scenario/tll.static.xml"/>
    </input>

    <output>
        <summary-output value="/home/aware/git/CA_System/src/networks/LuST_Scenario/dua.static.summary.xml"/>
        <tripinfo-output value="/home/aware/git/CA_System/src/networks/LuST_Scenario/dua.static.tripinfo.xml"/>
    </output>

    <time>
        <begin value="0"/>
        <step-length value="1"/>
    </time>

    <processing>
        <ignore-junction-blocker value="20"/>
        <time-to-teleport value="600"/>
        <max-depart-delay value="600"/>
    </processing>

    <routing>
        <routing-algorithm value="dijkstra"/>
        <device.rerouting.probability value="0.7"/>
        <device.rerouting.period value="300"/>
        <device.rerouting.pre-period value="300"/>
    </routing>

    <report>
        <verbose value="true"/>
        <log value="/home/aware/git/CA_System/src/networks/LuST_Scenario/dua.static.log"/>
    </report>

</configuration>
-->

<tripinfos xmlns:xsi="http://www.w3.org/2001/XMLSchema-instance" xsi:noNamespaceSchemaLocation="http://sumo.dlr.de/xsd/tripinfo_file.xsd">
    <tripinfo id="randUni834:1" depart="5.00" departLane="--32406#3_0" departPos="18.75" departSpeed="0.00" departDelay="0.00" arrival="36.00" arrivalLane="--31212_0" arrivalPos="42.24" arrivalSpeed="0.12" duration="31.00" routeLength="351.89" waitSteps="0" timeLoss="8.54" rerouteNo="0" devices="tripinfo_randUni834:1 routing_randUni834:1" vType="passenger2b" speedFactor="1.13" vaporized=""/>
    <tripinfo id="randUni16882:1" depart="14.00" departLane="-32340#7_0" departPos="26.13" departSpeed="0.00" departDelay="0.00" arrival="125.00" arrivalLane="-32660_0" arrivalPos="117.69" arrivalSpeed="0.33" duration="111.00" routeLength="1334.99" waitSteps="0" timeLoss="15.45" rerouteNo="0" devices="tripinfo_randUni16882:1 routing_randUni16882:1" vType="passenger1" speedFactor="1.01" vaporized=""/>
    <tripinfo id="randUni11317:1" depart="11.00" departLane="--31490_0" departPos="42.26" departSpeed="0.00" departDelay="0.00" arrival="187.00" arrivalLane="-31290#1_0" arrivalPos="17.49" arrivalSpeed="0.10" duration="176.00" routeLength="1624.49" waitSteps="37" timeLoss="62.29" rerouteNo="1" devices="tripinfo_randUni11317:1 routing_randUni11317:1" vType="passenger2a" speedFactor="1.04" vaporized=""/>
    <tripinfo id="NBSKMS_Nightbus_0" depart="39.00" departLane="-32278#1_0" departPos="0.00" departSpeed="0.00" departDelay="0.00" arrival="276.00" arrivalLane="-32278#5_0" arrivalPos="841.44" arrivalSpeed="14.85" duration="237.00" routeLength="1905.19" waitSteps="11" timeLoss="49.17" rerouteNo="0" devices="tripinfo_NBSKMS_Nightbus_0" vType="bus" speedFactor="1.11" vaporized=""/>
    <tripinfo id="0FRtoLU.0" depart="42.00" departLane="-32426#0_0" departPos="5.10" departSpeed="13.89" departDelay="0.00" arrival="329.00" arrivalLane="-32400#5_0" arrivalPos="257.03" arrivalSpeed="31.24" duration="287.00" routeLength="6507.94" waitSteps="0" timeLoss="15.32" rerouteNo="0" devices="tripinfo_0FRtoLU.0 routing_0FRtoLU.0" vType="passenger1" speedFactor="0.88" vaporized=""/>
    <tripinfo id="0FRtoLU.1" depart="63.00" departLane="-32426#0_0" departPos="5.10" departSpeed="13.89" departDelay="0.00" arrival="331.00" arrivalLane="-32400#5_0" arrivalPos="257.03" arrivalSpeed="34.90" duration="268.00" routeLength="6507.94" waitSteps="0" timeLoss="34.83" rerouteNo="0" devices="tripinfo_0FRtoLU.1" vType="passenger1" speedFactor="1.03" vaporized=""/>
    <tripinfo id="randUni13606:1" depart="27.00" departLane="--32244_0" departPos="114.21" departSpeed="0.00" departDelay="0.00" arrival="336.00" arrivalLane="-31068#1_0" arrivalPos="146.47" arrivalSpeed="0.18" duration="309.00" routeLength="2752.50" waitSteps="80" timeLoss="120.14" rerouteNo="0" devices="tripinfo_randUni13606:1 routing_randUni13606:1" vType="passenger4" speedFactor="1.03" vaporized=""/>
    <tripinfo id="0DEtoLU.0" depart="15.00" departLane="-31622#0_0" departPos="4.60" departSpeed="13.89" departDelay="0.00" arrival="365.00" arrivalLane="-32400#5_1" arrivalPos="257.03" arrivalSpeed="37.75" duration="350.00" routeLength="11354.22" waitSteps="0" timeLoss="14.56" rerouteNo="0" devices="tripinfo_0DEtoLU.0 routing_0DEtoLU.0" vType="passenger2a" speedFactor="1.05" vaporized=""/>
    <tripinfo id="randUni3742:1" depart="283.00" departLane="--32124#1_0" departPos="155.63" departSpeed="0.00" departDelay="0.00" arrival="365.00" arrivalLane="--31894#2_0" arrivalPos="1.96" arrivalSpeed="0.37" duration="82.00" routeLength="312.06" waitSteps="49" timeLoss="63.92" rerouteNo="0" devices="tripinfo_randUni3742:1 routing_randUni3742:1" vType="passenger2a" speedFactor="1.21" vaporized=""/>
    <tripinfo id="0DEtoLU.1" depart="43.00" departLane="-31622#0_0" departPos="6.10" departSpeed="13.89" departDelay="0.00" arrival="379.00" arrivalLane="-32400#5_1" arrivalPos="257.03" arrivalSpeed="38.88" duration="336.00" routeLength="11352.72" waitSteps="0" timeLoss="12.75" rerouteNo="0" devices="tripinfo_0DEtoLU.1 routing_0DEtoLU.1" vType="passenger3" speedFactor="1.09" vaporized=""/>
    <tripinfo id="0LUtoDE.0" depart="45.00" departLane="-30706#0_0" departPos="5.10" departSpeed="13.89" departDelay="0.00" arrival="381.00" arrivalLane="-30668#16_1" arrivalPos="272.49" arrivalSpeed="35.38" duration="336.00" routeLength="10511.80" waitSteps="0" timeLoss="12.05" rerouteNo="0" devices="tripinfo_0LUtoDE.0 routing_0LUtoDE.0" vType="passenger1" speedFactor="0.99" vaporized=""/>
    <tripinfo id="randUni19500:1" depart="198.00" departLane="-31230#5_0" departPos="67.23" departSpeed="0.00" departDelay="0.00" arrival="395.00" arrivalLane="--30968#1_0" arrivalPos="60.37" arrivalSpeed="4.28" duration="197.00" routeLength="2066.33" waitSteps="18" timeLoss="51.07" rerouteNo="1" devices="tripinfo_randUni19500:1 routing_randUni19500:1" vType="passenger2b" speedFactor="1.03" vaporized=""/>
    <tripinfo id="NBSKMS_Nightbus_1" depart="39.00" departLane="--32278#5_0" departPos="0.00" departSpeed="0.00" departDelay="0.00" arrival="401.00" arrivalLane="--32278#1_0" arrivalPos="139.07" arrivalSpeed="10.60" duration="362.00" routeLength="1910.02" waitSteps="100" timeLoss="133.80" rerouteNo="0" devices="tripinfo_NBSKMS_Nightbus_1" vType="bus" speedFactor="0.83" vaporized=""/>
    <tripinfo id="randUni18368:1" depart="0.00" departLane="-31606#0_0" departPos="177.47" departSpeed="0.00" departDelay="0.00" arrival="402.00" arrivalLane="-30496#4_1" arrivalPos="97.49" arrivalSpeed="0.18" duration="402.00" routeLength="2882.13" waitSteps="144" timeLoss="189.48" rerouteNo="0" devices="tripinfo_randUni18368:1" vType="passenger2a" speedFactor="0.97" vaporized=""/>
    <tripinfo id="0BEtoFR.1" depart="145.00" departLane="-30668#0_0" departPos="4.60" departSpeed="13.89" departDelay="0.00" arrival="408.00" arrivalLane="-31366#3_1" arrivalPos="20.69" arrivalSpeed="39.51" duration="263.00" routeLength="9435.52" waitSteps="0" timeLoss="11.96" rerouteNo="0" devices="tripinfo_0BEtoFR.1 routing_0BEtoFR.1" vType="passenger2a" speedFactor="1.11" vaporized=""/>
    <tripinfo id="randUni10908:1" depart="127.00" departLane="-31302_0" departPos="2.36" departSpeed="0.00" departDelay="0.00" arrival="417.00" arrivalLane="--32160#3_0" arrivalPos="44.07" arrivalSpeed="0.10" duration="290.00" routeLength="3135.03" waitSteps="51" timeLoss="101.83" rerouteNo="1" devices="tripinfo_randUni10908:1 routing_randUni10908:1" vType="passenger2b" speedFactor="1.21" vaporized=""/>
    <tripinfo id="0BEtoFR.0" depart="96.00" departLane="-30668#0_0" departPos="7.10" departSpeed="13.89" departDelay="0.00" arrival="429.00" arrivalLane="-31366#3_1" arrivalPos="20.69" arrivalSpeed="29.85" duration="333.00" routeLength="9433.02" waitSteps="0" timeLoss="9.47" rerouteNo="0" devices="tripinfo_0BEtoFR.0 routing_0BEtoFR.0" vType="passenger5" speedFactor="1.12" vaporized=""/>
    <tripinfo id="0FRtoLU.2" depart="119.00" departLane="-32426#0_0" departPos="6.10" departSpeed="13.89" departDelay="0.00" arrival="430.00" arrivalLane="-32400#5_0" arrivalPos="257.03" arrivalSpeed="28.33" duration="311.00" routeLength="6506.94" waitSteps="0" timeLoss="16.19" rerouteNo="0" devices="tripinfo_0FRtoLU.2 routing_0FRtoLU.2" vType="passenger3" speedFactor="0.82" vaporized=""/>
    <tripinfo id="0FRtoLU.3" depart="129.00" departLane="-32426#0_0" departPos="5.10" departSpeed="13.89" departDelay="0.00" arrival="431.00" arrivalLane="-32400#5_0" arrivalPos="257.03" arrivalSpeed="31.87" duration="302.00" routeLength="6507.94" waitSteps="0" timeLoss="88.07" rerouteNo="0" devices="tripinfo_0FRtoLU.3" vType="passenger1" speedFactor="1.12" vaporized=""/>
    <tripinfo id="0FRtoLU.4" depart="192.00" departLane="-32426#0_0" departPos="4.60" departSpeed="13.89" departDelay="0.00" arrival="437.00" arrivalLane="-32400#5_0" arrivalPos="257.03" arrivalSpeed="37.71" duration="245.00" routeLength="6508.44" waitSteps="0" timeLoss="15.20" rerouteNo="0" devices="tripinfo_0FRtoLU.4 routing_0FRtoLU.4" vType="passenger2a" speedFactor="1.05" vaporized=""/>
    <tripinfo id="randUni8397:1" depart="348.00" departLane="--30528#29_0" departPos="11.34" departSpeed="0.00" departDelay="0.00" arrival="441.00" arrivalLane="--30778#0_0" arrivalPos="85.73" arrivalSpeed="0.09" duration="93.00" routeLength="995.34" waitSteps="1" timeLoss="19.81" rerouteNo="0" devices="tripinfo_randUni8397:1" vType="passenger1" speedFactor="0.98" vaporized=""/>
    <tripinfo id="0FRtoBE.0" depart="96.00" departLane="-32426#0_0" departPos="4.60" departSpeed="13.89" departDelay="0.00" arrival="446.00" arrivalLane="-31622#16_1" arrivalPos="305.81" arrivalSpeed="31.04" duration="350.00" routeLength="9592.32" waitSteps="0" timeLoss="16.33" rerouteNo="0" devices="tripinfo_0FRtoBE.0 routing_0FRtoBE.0" vType="passenger2b" speedFactor="0.90" vaporized=""/>
    <tripinfo id="0LUtoBE.0" depart="12.00" departLane="-30706#0_0" departPos="4.60" departSpeed="13.89" departDelay="0.00" arrival="459.00" arrivalLane="-31622#16_1" arrivalPos="305.81" arrivalSpeed="31.11" duration="447.00" routeLength="11318.23" waitSteps="0" timeLoss="19.86" rerouteNo="0" devices="tripinfo_0LUtoBE.0" vType="passenger2a" speedFactor="0.87" vaporized=""/>
    <tripinfo id="0FRtoBE.1" depart="190.00" departLane="-32426#0_0" departPos="4.60" departSpeed="13.89" departDelay="0.00" arrival="466.00" arrivalLane="-31622#16_2" arrivalPos="305.81" arrivalSpeed="41.01" duration="276.00" routeLength="9592.32" waitSteps="0" timeLoss="17.22" rerouteNo="0" devices="tripinfo_0FRtoBE.1 routing_0FRtoBE.1" vType="passenger2b" speedFactor="1.16" vaporized=""/>
    <tripinfo id="0LUtoDE.1" depart="122.00" departLane="-30706#0_0" departPos="4.60" departSpeed="13.89" departDelay="0.00" arrival="475.00" arrivalLane="-30668#16_1" arrivalPos="272.49" arrivalSpeed="33.67" duration="353.00" routeLength="10512.30" waitSteps="0" timeLoss="12.15" rerouteNo="0" devices="tripinfo_0LUtoDE.1" vType="passenger2b" speedFactor="0.94" vaporized=""/>
    <tripinfo id="0FRtoLU.5" depart="243.00" departLane="-32426#0_0" departPos="5.10" departSpeed="13.89" departDelay="0.00" arrival="481.00" arrivalLane="-32400#5_0" arrivalPos="257.03" arrivalSpeed="40.24" duration="238.00" routeLength="6507.94" waitSteps="0" timeLoss="25.45" rerouteNo="0" devices="tripinfo_0FRtoLU.5" vType="passenger1" speedFactor="1.13" vaporized=""/>
    <tripinfo id="0DEtoFR.0" depart="0.00" departLane="-31622#0_0" departPos="5.10" departSpeed="13.89" departDelay="0.00" arrival="486.00" arrivalLane="-31366#3_1" arrivalPos="20.69" arrivalSpeed="35.46" duration="486.00" routeLength="15900.65" waitSteps="0" timeLoss="15.33" rerouteNo="0" devices="tripinfo_0DEtoFR.0 routing_0DEtoFR.0" vType="passenger1" speedFactor="0.99" vaporized=""/>
    <tripinfo id="randUni2416:1" depart="301.00" departLane="--32280#0_0" departPos="288.92" departSpeed="0.00" departDelay="0.00" arrival="493.00" arrivalLane="-31904#2_0" arrivalPos="26.11" arrivalSpeed="0.28" duration="192.00" routeLength="1766.87" waitSteps="11" timeLoss="38.08" rerouteNo="1" devices="tripinfo_randUni2416:1 routing_randUni2416:1" vType="passenger5" speedFactor="0.82" vaporized=""/>
    <tripinfo id="0BEtoFR.2" depart="215.00" departLane="-30668#0_0" departPos="4.60" departSpeed="13.89" departDelay="0.00" arrival="498.00" arrivalLane="-31366#3_1" arrivalPos="20.69" arrivalSpeed="36.55" duration="283.00" routeLength="9435.52" waitSteps="0" timeLoss="10.60" rerouteNo="0" devices="tripinfo_0BEtoFR.2 routing_0BEtoFR.2" vType="passenger2b" speedFactor="1.02" vaporized=""/>
    <tripinfo id="randUni1024:1" depart="139.00" departLane="-32924#6_0" departPos="2.87" departSpeed="0.00" departDelay="0.00" arrival="504.00" arrivalLane="-32392#1_0" arrivalPos="75.78" arrivalSpeed="0.19" duration="365.00" routeLength="3505.35" waitSteps="107" timeLoss="144.53" rerouteNo="0" devices="tripinfo_randUni1024:1" vType="passenger2b" speedFactor="1.06" vaporized=""/>
    <tripinfo id="0BEtoFR.3" depart="239.00" departLane="-30668#0_0" departPos="4.60" departSpeed="13.89" departDelay="0.00" arrival="506.00" arrivalLane="-31366#3_1" arrivalPos="20.69" arrivalSpeed="39.23" duration="267.00" routeLength="9435.52" waitSteps="0" timeLoss="11.84" rerouteNo="0" devices="tripinfo_0BEtoFR.3 routing_0BEtoFR.3" vType="passenger2a" speedFactor="1.09" vaporized=""/>
    <tripinfo id="randUni20481:1" depart="13.00" departLane="--32468#2_0" departPos="51.77" departSpeed="0.00" departDelay="0.00" arrival="512.00" arrivalLane="-30528#52_0" arrivalPos="20.05" arrivalSpeed="2.52" duration="499.00" routeLength="5296.04" waitSteps="113" timeLoss="158.23" rerouteNo="1" devices="tripinfo_randUni20481:1 routing_randUni20481:1" vType="passenger1" speedFactor="1.10" vaporized=""/>
    <tripinfo id="0FRtoLU.6" depart="272.00" departLane="-32426#0_0" departPos="4.60" departSpeed="13.89" departDelay="0.00" arrival="513.00" arrivalLane="-32400#5_0" arrivalPos="257.03" arrivalSpeed="38.34" duration="241.00" routeLength="6508.44" waitSteps="0" timeLoss="16.03" rerouteNo="0" devices="tripinfo_0FRtoLU.6" vType="passenger2b" speedFactor="1.07" vaporized=""/>
    <tripinfo id="0LUtoDE.2" depart="205.00" departLane="-30706#0_0" departPos="4.60" departSpeed="13.89" departDelay="0.00" arrival="521.00" arrivalLane="-30668#16_1" arrivalPos="272.49" arrivalSpeed="37.72" duration="316.00" routeLength="10512.30" waitSteps="0" timeLoss="12.39" rerouteNo="0" devices="tripinfo_0LUtoDE.2 routing_0LUtoDE.2" vType="passenger2b" speedFactor="1.06" vaporized=""/>
    <tripinfo id="0LUtoBE.1" depart="133.00" departLane="-30706#0_0" departPos="5.10" departSpeed="13.89" departDelay="0.00" arrival="543.00" arrivalLane="-31622#16_1" arrivalPos="305.81" arrivalSpeed="33.18" duration="410.00" routeLength="11317.73" waitSteps="0" timeLoss="16.63" rerouteNo="0" devices="tripinfo_0LUtoBE.1 routing_0LUtoBE.1" vType="passenger1" speedFactor="0.94" vaporized=""/>
    <tripinfo id="0DEtoFR.1" depart="8.00" departLane="-31622#0_0" departPos="4.60" departSpeed="13.89" departDelay="0.00" arrival="549.00" arrivalLane="-31366#3_1" arrivalPos="20.69" arrivalSpeed="31.34" duration="541.00" routeLength="15901.15" waitSteps="0" timeLoss="16.48" rerouteNo="0" devices="tripinfo_0DEtoFR.1" vType="passenger2b" speedFactor="0.89" vaporized=""/>
    <tripinfo id="0DEtoFR.2" depart="14.00" departLane="-31622#0_0" departPos="5.10" departSpeed="13.89" departDelay="0.00" arrival="556.00" arrivalLane="-31366#3_1" arrivalPos="20.69" arrivalSpeed="31.17" duration="542.00" routeLength="15900.65" waitSteps="0" timeLoss="17.20" rerouteNo="0" devices="tripinfo_0DEtoFR.2 routing_0DEtoFR.2" vType="passenger1" speedFactor="0.89" vaporized=""/>
    <tripinfo id="0LUtoFR.1" depart="238.00" departLane="-30706#0_0" departPos="4.60" departSpeed="13.89" departDelay="0.00" arrival="557.00" arrivalLane="-31366#3_1" arrivalPos="20.69" arrivalSpeed="34.05" duration="319.00" routeLength="8111.50" waitSteps="0" timeLoss="37.70" rerouteNo="0" devices="tripinfo_0LUtoFR.1 routing_0LUtoFR.1" vType="passenger2a" speedFactor="1.10" vaporized=""/>
    <tripinfo id="0BEtoFR.4" depart="302.00" departLane="-30668#0_0" departPos="5.10" departSpeed="13.89" departDelay="0.00" arrival="562.00" arrivalLane="-31366#3_1" arrivalPos="20.69" arrivalSpeed="39.59" duration="260.00" routeLength="9435.02" waitSteps="0" timeLoss="12.37" rerouteNo="0" devices="tripinfo_0BEtoFR.4 routing_0BEtoFR.4" vType="passenger1" speedFactor="1.13" vaporized=""/>
    <tripinfo id="0LUtoFR.0" depart="235.00" departLane="-30706#0_0" departPos="5.10" departSpeed="13.89" departDelay="0.00" arrival="569.00" arrivalLane="-31366#3_1" arrivalPos="20.69" arrivalSpeed="34.60" duration="334.00" routeLength="8111.00" waitSteps="0" timeLoss="19.63" rerouteNo="0" devices="tripinfo_0LUtoFR.0" vType="passenger1" speedFactor="0.99" vaporized=""/>
    <tripinfo id="0FRtoBE.2" depart="267.00" departLane="-32426#0_0" departPos="5.10" departSpeed="13.89" departDelay="0.00" arrival="571.00" arrivalLane="-31622#16_1" arrivalPos="305.81" arrivalSpeed="37.57" duration="304.00" routeLength="9591.82" waitSteps="0" timeLoss="15.73" rerouteNo="0" devices="tripinfo_0FRtoBE.2 routing_0FRtoBE.2" vType="passenger1" speedFactor="1.04" vaporized=""/>
    <tripinfo id="randUni5174:1" depart="289.00" departLane="--32388_0" departPos="10.20" departSpeed="0.00" departDelay="0.00" arrival="585.00" arrivalLane="-30398#8_0" arrivalPos="32.15" arrivalSpeed="1.04" duration="296.00" routeLength="2286.89" waitSteps="99" timeLoss="148.19" rerouteNo="1" devices="tripinfo_randUni5174:1 routing_randUni5174:1" vType="passenger2a" speedFactor="1.09" vaporized=""/>
    <tripinfo id="0DEtoLU.2" depart="160.00" departLane="-31622#0_0" departPos="5.10" departSpeed="13.89" departDelay="0.00" arrival="587.00" arrivalLane="-32400#5_1" arrivalPos="257.03" arrivalSpeed="29.93" duration="427.00" routeLength="11353.72" waitSteps="0" timeLoss="14.33" rerouteNo="0" devices="tripinfo_0DEtoLU.2" vType="passenger1" speedFactor="0.86" vaporized=""/>
    <tripinfo id="0DEtoFR.4" depart="154.00" departLane="-31622#0_0" departPos="4.60" departSpeed="13.89" departDelay="0.00" arrival="599.00" arrivalLane="-31366#3_1" arrivalPos="20.69" arrivalSpeed="39.36" duration="445.00" routeLength="15901.15" waitSteps="0" timeLoss="19.00" rerouteNo="0" devices="tripinfo_0DEtoFR.4 routing_0DEtoFR.4" vType="passenger2a" speedFactor="1.10" vaporized=""/>
    <tripinfo id="0LUtoFR.2" depart="289.00" departLane="-30706#0_0" departPos="4.60" departSpeed="13.89" departDelay="0.00" arrival="600.00" arrivalLane="-31366#3_1" arrivalPos="20.69" arrivalSpeed="37.09" duration="311.00" routeLength="8111.50" waitSteps="0" timeLoss="20.50" rerouteNo="0" devices="tripinfo_0LUtoFR.2 routing_0LUtoFR.2" vType="passenger2a" speedFactor="1.06" vaporized=""/>
    <tripinfo id="0LUtoFR.3" depart="315.00" departLane="-30706#0_0" departPos="5.10" departSpeed="13.89" departDelay="0.00" arrival="614.00" arrivalLane="-31366#3_1" arrivalPos="20.69" arrivalSpeed="38.92" duration="299.00" routeLength="8111.00" waitSteps="0" timeLoss="20.58" rerouteNo="0" devices="tripinfo_0LUtoFR.3 routing_0LUtoFR.3" vType="passenger1" speedFactor="1.11" vaporized=""/>
    <tripinfo id="randUni9228:1" depart="392.00" departLane="-31648#0_0" departPos="29.94" departSpeed="0.00" departDelay="0.00" arrival="614.00" arrivalLane="-30608#9_1" arrivalPos="45.03" arrivalSpeed="0.51" duration="222.00" routeLength="1633.50" waitSteps="54" timeLoss="82.03" rerouteNo="1" devices="tripinfo_randUni9228:1 routing_randUni9228:1" vType="passenger1" speedFactor="0.85" vaporized=""/>
    <tripinfo id="0DEtoLU.3" depart="265.00" departLane="-31622#0_0" departPos="5.10" departSpeed="13.89" departDelay="0.00" arrival="616.00" arrivalLane="-32400#5_1" arrivalPos="257.03" arrivalSpeed="37.05" duration="351.00" routeLength="11353.72" waitSteps="0" timeLoss="13.04" rerouteNo="0" devices="tripinfo_0DEtoLU.3" vType="passenger1" speedFactor="1.04" vaporized=""/>
    <tripinfo id="randUni7357:1" depart="102.00" departLane="-30988#3_0" departPos="111.19" departSpeed="0.00" departDelay="0.00" arrival="618.00" arrivalLane="-32190_0" arrivalPos="218.64" arrivalSpeed="0.14" duration="516.00" routeLength="5041.76" waitSteps="128" timeLoss="179.09" rerouteNo="0" devices="tripinfo_randUni7357:1 routing_randUni7357:1" vType="passenger1" speedFactor="1.06" vaporized=""/>
    <tripinfo id="0BEtoLU.0" depart="237.00" departLane="-30668#0_0" departPos="5.10" departSpeed="13.89" departDelay="0.00" arrival="620.00" arrivalLane="-32400#5_0" arrivalPos="257.03" arrivalSpeed="32.81" duration="383.00" routeLength="10745.68" waitSteps="0" timeLoss="14.22" rerouteNo="0" devices="tripinfo_0BEtoLU.0 routing_0BEtoLU.0" vType="passenger1" speedFactor="0.93" vaporized=""/>
    <tripinfo id="0BEtoLU.1" depart="248.00" departLane="-30668#0_0" departPos="5.10" departSpeed="13.89" departDelay="0.00" arrival="621.00" arrivalLane="-32400#5_0" arrivalPos="257.03" arrivalSpeed="35.60" duration="373.00" routeLength="10745.68" waitSteps="0" timeLoss="33.47" rerouteNo="0" devices="tripinfo_0BEtoLU.1 routing_0BEtoLU.1" vType="passenger1" speedFactor="1.01" vaporized=""/>
    <tripinfo id="0LUtoDE.4" depart="324.00" departLane="-30706#0_0" departPos="5.10" departSpeed="13.89" departDelay="0.00" arrival="627.00" arrivalLane="-30668#16_1" arrivalPos="272.49" arrivalSpeed="39.23" duration="303.00" routeLength="10511.80" waitSteps="0" timeLoss="12.52" rerouteNo="0" devices="tripinfo_0LUtoDE.4" vType="passenger1" speedFactor="1.11" vaporized=""/>
    <tripinfo id="0BEtoLU.2" depart="292.00" departLane="-30668#0_0" departPos="6.10" departSpeed="13.89" departDelay="0.00" arrival="636.00" arrivalLane="-32400#5_0" arrivalPos="257.03" arrivalSpeed="36.31" duration="344.00" routeLength="10744.68" waitSteps="0" timeLoss="13.46" rerouteNo="0" devices="tripinfo_0BEtoLU.2 routing_0BEtoLU.2" vType="passenger3" speedFactor="1.03" vaporized=""/>
    <tripinfo id="0FRtoLU.7" depart="379.00" departLane="-32426#0_0" departPos="7.10" departSpeed="13.89" departDelay="0.00" arrival="639.00" arrivalLane="-32400#5_0" arrivalPos="257.03" arrivalSpeed="29.94" duration="260.00" routeLength="6505.94" waitSteps="0" timeLoss="10.22" rerouteNo="0" devices="tripinfo_0FRtoLU.7" vType="passenger5" speedFactor="1.12" vaporized=""/>
    <tripinfo id="0LUtoDE.3" depart="303.00" departLane="-30706#0_0" departPos="4.60" departSpeed="13.89" departDelay="0.00" arrival="641.00" arrivalLane="-30668#16_1" arrivalPos="272.49" arrivalSpeed="35.31" duration="338.00" routeLength="10512.30" waitSteps="0" timeLoss="12.90" rerouteNo="0" devices="tripinfo_0LUtoDE.3" vType="passenger2b" speedFactor="0.99" vaporized=""/>
    <tripinfo id="0FRtoBE.3" depart="344.00" departLane="-32426#0_0" departPos="4.60" departSpeed="13.89" departDelay="0.00" arrival="653.00" arrivalLane="-31622#16_1" arrivalPos="305.81" arrivalSpeed="36.56" duration="309.00" routeLength="9592.32" waitSteps="0" timeLoss="17.25" rerouteNo="0" devices="tripinfo_0FRtoBE.3 routing_0FRtoBE.3" vType="passenger2a" speedFactor="1.03" vaporized=""/>
    <tripinfo id="0FRtoBE.4" depart="359.00" departLane="-32426#0_0" departPos="5.10" departSpeed="13.89" departDelay="0.00" arrival="657.00" arrivalLane="-31622#16_1" arrivalPos="305.81" arrivalSpeed="37.73" duration="298.00" routeLength="9591.82" waitSteps="0" timeLoss="16.50" rerouteNo="0" devices="tripinfo_0FRtoBE.4 routing_0FRtoBE.4" vType="passenger1" speedFactor="1.06" vaporized=""/>
    <tripinfo id="0DEtoFR.3" depart="98.00" departLane="-31622#0_0" departPos="5.10" departSpeed="13.89" departDelay="0.00" arrival="668.00" arrivalLane="-31366#3_1" arrivalPos="20.69" arrivalSpeed="29.53" duration="570.00" routeLength="15900.65" waitSteps="0" timeLoss="17.14" rerouteNo="0" devices="tripinfo_0DEtoFR.3" vType="passenger1" speedFactor="0.85" vaporized=""/>
    <tripinfo id="0DEtoLU.4" depart="340.00" departLane="-31622#0_0" departPos="6.10" departSpeed="13.89" departDelay="0.00" arrival="669.00" arrivalLane="-32400#5_1" arrivalPos="257.03" arrivalSpeed="39.39" duration="329.00" routeLength="11352.72" waitSteps="0" timeLoss="12.28" rerouteNo="0" devices="tripinfo_0DEtoLU.4 routing_0DEtoLU.4" vType="passenger3" speedFactor="1.11" vaporized=""/>
    <tripinfo id="0DEtoBE.1" depart="180.00" departLane="-31622#0_0" departPos="5.10" departSpeed="13.89" departDelay="0.00" arrival="675.00" arrivalLane="-31622#16_1" arrivalPos="305.81" arrivalSpeed="38.87" duration="495.00" routeLength="19107.38" waitSteps="0" timeLoss="17.62" rerouteNo="0" devices="tripinfo_0DEtoBE.1 routing_0DEtoBE.1" vType="passenger1" speedFactor="1.11" vaporized=""/>
    <tripinfo id="0FRtoDE.0" depart="252.00" departLane="-32426#0_0" departPos="5.10" departSpeed="13.89" departDelay="0.00" arrival="685.00" arrivalLane="-30668#16_1" arrivalPos="272.49" arrivalSpeed="36.08" duration="433.00" routeLength="14874.80" waitSteps="0" timeLoss="14.00" rerouteNo="0" devices="tripinfo_0FRtoDE.0 routing_0FRtoDE.0" vType="passenger1" speedFactor="1.02" vaporized=""/>
    <tripinfo id="0FRtoLU.8" depart="405.00" departLane="-32426#0_0" departPos="5.60" departSpeed="13.89" departDelay="0.00" arrival="685.00" arrivalLane="-32400#5_0" arrivalPos="257.03" arrivalSpeed="29.11" duration="280.00" routeLength="6507.44" waitSteps="0" timeLoss="11.78" rerouteNo="0" devices="tripinfo_0FRtoLU.8 routing_0FRtoLU.8" vType="passenger4" speedFactor="0.96" vaporized=""/>
    <tripinfo id="0BEtoDE.0" depart="140.00" departLane="-30668#0_0" departPos="4.60" departSpeed="13.89" departDelay="0.00" arrival="702.00" arrivalLane="-30668#16_1" arrivalPos="272.49" arrivalSpeed="34.42" duration="562.00" routeLength="19113.04" waitSteps="0" timeLoss="13.29" rerouteNo="0" devices="tripinfo_0BEtoDE.0 routing_0BEtoDE.0" vType="passenger2b" speedFactor="0.97" vaporized=""/>
    <tripinfo id="0LUtoFR.4" depart="372.00" departLane="-30706#0_0" departPos="7.10" departSpeed="13.89" departDelay="0.00" arrival="704.00" arrivalLane="-31366#3_1" arrivalPos="20.69" arrivalSpeed="28.99" duration="332.00" routeLength="8109.00" waitSteps="0" timeLoss="16.92" rerouteNo="0" devices="tripinfo_0LUtoFR.4 routing_0LUtoFR.4" vType="passenger5" speedFactor="1.12" vaporized=""/>
    <tripinfo id="randUni4182:1" depart="244.00" departLane="--32220#1_0" departPos="43.52" departSpeed="0.00" departDelay="0.00" arrival="708.00" arrivalLane="--30740#2_0" arrivalPos="28.12" arrivalSpeed="0.07" duration="464.00" routeLength="12669.69" waitSteps="1" timeLoss="41.17" rerouteNo="1" devices="tripinfo_randUni4182:1 routing_randUni4182:1" vType="passenger1" speedFactor="1.13" vaporized=""/>
    <tripinfo id="randUni4383:1" depart="479.00" departLane="--30872#10_0" departPos="84.42" departSpeed="0.00" departDelay="0.00" arrival="710.00" arrivalLane="-32716#0_0" arrivalPos="64.22" arrivalSpeed="0.07" duration="231.00" routeLength="1775.82" waitSteps="90" timeLoss="116.81" rerouteNo="0" devices="tripinfo_randUni4383:1 routing_randUni4383:1" vType="passenger2b" speedFactor="1.04" vaporized=""/>
    <tripinfo id="0DEtoFR.5" depart="204.00" departLane="-31622#0_0" departPos="5.10" departSpeed="13.89" departDelay="0.00" arrival="718.00" arrivalLane="-31366#3_1" arrivalPos="20.69" arrivalSpeed="33.80" duration="514.00" routeLength="15900.65" waitSteps="0" timeLoss="16.16" rerouteNo="0" devices="tripinfo_0DEtoFR.5" vType="passenger1" speedFactor="0.94" vaporized=""/>
    <tripinfo id="0BEtoLU.3" depart="376.00" departLane="-30668#0_0" departPos="4.60" departSpeed="13.89" departDelay="0.00" arrival="726.00" arrivalLane="-32400#5_0" arrivalPos="257.03" arrivalSpeed="36.04" duration="350.00" routeLength="10746.18" waitSteps="0" timeLoss="13.26" rerouteNo="0" devices="tripinfo_0BEtoLU.3 routing_0BEtoLU.3" vType="passenger2a" speedFactor="1.02" vaporized=""/>
    <tripinfo id="randUni1785:1" depart="192.00" departLane="-30458#3_0" departPos="49.11" departSpeed="0.00" departDelay="0.00" arrival="729.00" arrivalLane="--32650#6_0" arrivalPos="39.90" arrivalSpeed="0.21" duration="537.00" routeLength="6042.72" waitSteps="47" timeLoss="111.46" rerouteNo="1" devices="tripinfo_randUni1785:1 routing_randUni1785:1" vType="passenger1" speedFactor="0.96" vaporized=""/>
    <tripinfo id="0DEtoFR.6" depart="224.00" departLane="-31622#0_0" departPos="5.10" departSpeed="13.89" departDelay="0.00" arrival="736.00" arrivalLane="-31366#3_1" arrivalPos="20.69" arrivalSpeed="33.65" duration="512.00" routeLength="15900.65" waitSteps="0" timeLoss="15.96" rerouteNo="0" devices="tripinfo_0DEtoFR.6 routing_0DEtoFR.6" vType="passenger1" speedFactor="0.95" vaporized=""/>