<?xml version="1.0" encoding="UTF-8"?>

<!-- generated on jue 26 abr 2018 13:31:53 -03 by SUMO gui Version 0.30.0
<?xml version="1.0" encoding="UTF-8"?>

<configuration xmlns:xsi="http://www.w3.org/2001/XMLSchema-instance" xsi:noNamespaceSchemaLocation="http://sumo.dlr.de/xsd/sumoConfiguration.xsd">

    <input>
        <net-file value="/home/aware/git/CA_System/examples/veins/erlangen.net.xml"/>
        <route-files value="/home/aware/git/CA_System/examples/veins/erlangen2.rou.xml"/>
    </input>

    <output>
        <tripinfo-output value="/home/aware/git/CA_System/examples/veins/output-tripinfos.xml"/>
        <vehroute-output value="/home/aware/git/CA_System/examples/veins/output-vehroutes.xml"/>
    </output>

    <time>
        <begin value="0"/>
        <end value="3600"/>
    </time>

    <processing>
        <route-steps value="-1"/>
        <time-to-teleport value="-1"/>
    </processing>

    <report>
        <print-options value="false"/>
    </report>

    <random_number>
        <seed value="23423"/>
    </random_number>

</configuration>
-->

<routes xmlns:xsi="http://www.w3.org/2001/XMLSchema-instance" xsi:noNamespaceSchemaLocation="http://sumo.dlr.de/xsd/routes_file.xsd">
    <vehicle id="16" depart="16.00" arrival="33.00">
        <route edges="-32302591#4 -32302591#3 -32302591#2"/>
    </vehicle>

    <vehicle id="20" depart="20.00" arrival="48.00">
        <route edges="4900739#2 4900741 -31777493#1 31270441"/>
    </vehicle>

    <vehicle id="8" depart="8.00" arrival="87.00">
        <route edges="-4006726#0 -3998615#0 3013106#2 4006702#0 28613737 94344941 94344940#0 67076129"/>
    </vehicle>

    <vehicle id="42" depart="42.00" arrival="88.00">
        <route edges="8402998#1 -8402998#1 -8402998#0 29900565#3"/>
    </vehicle>

    <vehicle id="18" depart="18.00" arrival="92.00">
        <route edges="4006688#0 4006688#1 4006688#2 4006688#3 4006688#4 29900564#0 29900564#1 29900564#2 29900564#3 29900564#4"/>
    </vehicle>

    <vehicle id="23" depart="23.00" arrival="93.00">
        <route edges="31401017#1 31401017#2 4006693#0 -23605595 -8403007 8403007"/>
    </vehicle>

    <vehicle id="45" depart="45.00" arrival="99.00">
        <route edges="-3998613#0 3998613#0 3998613#1 3998613#2 -41973977"/>
    </vehicle>

    <vehicle id="55" depart="55.00" arrival="101.00">
        <route edges="4006687 8402997 -8402998#0"/>
    </vehicle>

    <vehicle id="36" depart="36.00" arrival="105.00">
        <route edges="3998615#2 -4099270#0 4006726#2 -3998645#0 3998612#1"/>
    </vehicle>

    <vehicle id="63" depart="63.00" arrival="105.00">
        <route edges="10425128#0 -10425128#0 -4006693#2 -4006693#1 -4006693#0"/>
    </vehicle>

    <vehicle id="6" depart="6.00" arrival="107.00">
        <route edges="85355912 85355911#0 85355911#1 30405356 5931612 30350450#0 30350450#1 30350450#2 4006702#0 31255203#0 31255203#1 31241838#0"/>
    </vehicle>

    <vehicle id="19" depart="19.00" arrival="109.00">
        <route edges="31241855#0 31241816#0 31241816#1 31241851#0 31241851#1 31241851#2 -31255203#0 28613737 94344941 94344940#0 -28613727#1 -28613727#0 -28613734"/>
    </vehicle>

    <vehicle id="2" depart="2.00" arrival="111.00">
        <route edges="-8402997 32270595 33174302#0 33174302#1 4686970#0 4686970#1 122161381 30350448 8364476 30350450#0 -3998645#2 -3998645#1"/>
    </vehicle>

    <vehicle id="52" depart="52.00" arrival="114.00">
        <route edges="-32302591#2 32302591#2 32302591#3 32302591#4 32302591#5 33174302#0 33174302#1 31353573#0"/>
    </vehicle>

    <vehicle id="12" depart="12.00" arrival="115.00">
        <route edges="-31255203#0 -4006702#0 -3013106#2 -3013106#1 -3013106#0 -10573414#1 4047378 4006724#1 4872369 -4006725#0"/>
    </vehicle>

    <vehicle id="84" depart="84.00" arrival="117.00">
        <route edges="-4006674#1 -4006674#0 32270593 32270592#0 -32270592#0"/>
    </vehicle>

    <vehicle id="17" depart="17.00" arrival="118.00">
        <route edges="-31777493#0 31777493#0 31777493#1 35842306#0 35842306#1 4047446#0 4047446#1 25472079 30405352 30350445 -33174302#1 -33174302#0 -32270595 -29900561#1 -29900561#0 -8403001"/>
    </vehicle>

    <vehicle id="29" depart="29.00" arrival="119.00">
        <route edges="31241835#0 -31241816#3 31241851#0 31241851#1 31241851#2 -31255203#0 -4006702#0 -3013106#2 -3013106#1 -3013106#0"/>
    </vehicle>

    <vehicle id="77" depart="77.00" arrival="121.00">
        <route edges="4900041#3 4900041#0 -4900043 4006702#2"/>
    </vehicle>

    <vehicle id="71" depart="71.00" arrival="122.00">
        <route edges="-23605600#2 23605600#2 29900567 31401017#0 4006688#0 4006688#1 4006688#2 -4006688#2"/>
    </vehicle>

    <vehicle id="73" depart="73.00" arrival="124.00">
        <route edges="9643180 -8402998#1 -8402997 -4006687"/>
    </vehicle>

    <vehicle id="21" depart="21.00" arrival="125.00">
        <route edges="4006725#0 -4872369 -4006724#1 -4047378 10573414#1 3013106#0 3013106#1 3013106#2 4006702#0 31255203#0 -31241851#2 -31241853#2 -31241838#0"/>
    </vehicle>

    <vehicle id="33" depart="33.00" arrival="127.00">
        <route edges="-10712013 4006688#3 4006688#4 29900564#0 29900564#1 29900564#2 29900564#3 29900564#4 29900564#5 -29900564#5"/>
    </vehicle>

    <vehicle id="43" depart="43.00" arrival="128.00">
        <route edges="-32302591#3 32302591#3 32302591#4 23605600#0 -23605600#0"/>
    </vehicle>

    <vehicle id="34" depart="34.00" arrival="129.00">
        <route edges="-31255203#0 4006702#1 4006702#2 -28269598 -4006703#1 4006705#1 4006705#2"/>
    </vehicle>

    <vehicle id="61" depart="61.00" arrival="132.00">
        <route edges="31401017#2 -31401017#2 -31401017#1 4006688#0 4006688#1 4006688#2 4006688#3 -4006688#3"/>
    </vehicle>

    <vehicle id="4" depart="4.00" arrival="135.00">
        <route edges="10419402 -4006693#1 -23605595 -8403007 -29900564#1 -8402998#2 -8402998#1 -8402997 32270595 -29900565#3"/>
    </vehicle>

    <vehicle id="51" depart="52.00" arrival="135.00">
        <route edges="94344940#0 -94344940#0 28768072 -28613737 31255203#0 -31241851#2 -31241851#1 -31241851#0 -31241816#1 -31241816#0 31241855#1"/>
    </vehicle>

    <vehicle id="94" depart="94.00" arrival="136.00">
        <route edges="4900741 35842306#0 35842306#1 4047446#0 4047446#1 25472079 30405352 30350445"/>
    </vehicle>

    <vehicle id="104" depart="106.00" arrival="137.00">
        <route edges="-94344940#2 -28613727#1 28631632"/>
    </vehicle>

    <vehicle id="35" depart="35.00" arrival="138.00">
        <route edges="30350448 30350449 25472079 30405352 30350445 -33174302#1 -33174302#0 -32270595 -29900561#1 -29900561#0 -4006688#4 -4006688#3 -4006688#2 -4006688#1 -4006688#0 31401017#1"/>
    </vehicle>

    <vehicle id="9" depart="9.00" arrival="140.00">
        <route edges="31241855#1 31241853#1 -31241838#0 -31255203#1 -31255203#0 -4006702#0 4319352#1 44069041#0 25472134 30751813 -35842306#1 -35842306#0 -4900741 -4900739#2 4690348"/>
    </vehicle>

    <vehicle id="69" depart="69.00" arrival="142.00">
        <route edges="-32302591#1 32302591#1 32302591#2 32302591#3 32302591#4 32302591#5 -32270595 8402997 8402998#1 8402998#2"/>
    </vehicle>

    <vehicle id="93" depart="93.00" arrival="143.00">
        <route edges="-3013106#1 3013106#1 3013106#2 4006702#0 31255203#0 -31241851#2 -31241853#2 -31241853#1 -31241855#1"/>
    </vehicle>

    <vehicle id="80" depart="80.00" arrival="147.00">
        <route edges="3998645#2 30350450#1 30350450#2 -3013106#2 -3013106#1"/>
    </vehicle>

    <vehicle id="44" depart="44.00" arrival="149.00">
        <route edges="32302591#1 32302591#2 32302591#3 32302591#4 32302591#5 -32270595 8402997 8402998#1 8402998#2 29900564#1 8403007 23605595"/>
    </vehicle>

    <vehicle id="109" depart="109.00" arrival="152.00">
        <route edges="-31777493#0 31777493#0 31777493#1 35842306#0 26188722"/>
    </vehicle>

    <vehicle id="95" depart="95.00" arrival="155.00">
        <route edges="9643180 -9643180 -29900561#0 -4006688#4 -4006688#3 -4006688#2 -4006688#1 4006688#1"/>
    </vehicle>

    <vehicle id="26" depart="26.00" arrival="158.00">
        <route edges="4900041#2 4900041#3 4900041#0 -4900043 -4006702#1 -4006702#0 4319352#1 44069041#0 44069041#1 25472079 30405352 19796637 122161390 25472299"/>
    </vehicle>

    <vehicle id="7" depart="7.00" arrival="158.00">
        <route edges="-4099270#0 4006726#2 -3998645#0 -3998612#0 30357194 25472299 30350448 30350449 4047309 30751813 -35842306#1 -35842306#0"/>
    </vehicle>

    <vehicle id="86" depart="86.00" arrival="160.00">
        <route edges="31777493#1 35842306#0 35842306#1 4047446#0 25472129 31982182#0"/>
    </vehicle>

    <vehicle id="76" depart="76.00" arrival="161.00">
        <route edges="-31241838#1 -31241838#0 -31255203#1 -31255203#0 4006702#1 4006702#2 -28269598"/>
    </vehicle>

    <vehicle id="50" depart="50.00" arrival="162.00">
        <route edges="-4006690 4006690 29900565#0 29900565#1 29900565#2 29900565#3 33174302#0 33174302#1 4686970#0 4686970#1"/>
    </vehicle>

    <vehicle id="31" depart="31.00" arrival="162.00">
        <route edges="4047446#1 25472079 30405352 30350445 -33174302#1 -33174302#0 -32270595 -29900561#1 -29900561#0 -8403001 -4006674#4 -4006674#3 -4006674#2 -4006683"/>
    </vehicle>

    <vehicle id="3" depart="3.00" arrival="163.00">
        <route edges="32302591#0 32302591#1 32302591#2 32302591#3 32302591#4 32302591#5 33174302#0 33174302#1 4686970#0 4686970#1 122161381 30350448 8364476 30350450#0 -3998645#2 -3998645#1 -4006726#2 -4006726#1 -4006726#0"/>
    </vehicle>

    <vehicle id="47" depart="47.00" arrival="165.00">
        <route edges="4006726#1 4006726#2 -3998645#0 -3998612#0 30357194 25472299 30350448 30350449 25472079 30405352 30350445 4686970#0 4686970#1"/>
    </vehicle>

    <vehicle id="22" depart="22.00" arrival="166.00">
        <route edges="25472257 25472299 30350448 30350449 25472079 30405352 30350445 -33174302#1 -33174302#0 -32270595 -29900561#1 -29900561#0 -8403001 -4006674#4 -4006674#3 -4006674#2 -4006683"/>
    </vehicle>

    <vehicle id="24" depart="24.00" arrival="166.00">
        <route edges="-3998645#0 -3998612#0 30357194 25472299 30350448 30350449 25472079 30405352 30350445 -33174302#1 -33174302#0 -32270595 8402997 -8402998#0"/>
    </vehicle>

    <vehicle id="105" depart="105.00" arrival="169.00">
        <route edges="4900041#1 4900041#2 4900041#3 4900041#0 -4900043 4006702#2 -28269598 -4006703#1"/>
    </vehicle>

    <vehicle id="56" depart="56.00" arrival="170.00">
        <route edges="-4006688#3 -4006688#2 -4006688#1 -4006688#0 31401017#1 31401017#2 4006693#0 4006693#1 -10419402 10419402"/>
    </vehicle>

    <vehicle id="97" depart="102.00" arrival="171.00">
        <route edges="28613737 -28613737 -4006702#0 4319352#1 44069041#0 25472134"/>
    </vehicle>

    <vehicle id="147" depart="147.00" arrival="174.00">
        <route edges="-29900567 -23605600#2 23605600#2"/>
    </vehicle>

    <vehicle id="85" depart="85.00" arrival="175.00">
        <route edges="4006724#1 -4006724#1 -4047378 10573414#1 3013106#0 3013106#1 3013106#2 4006702#0 31255203#0 -31241851#2 -31241851#1 -31241851#0 -31241816#1"/>
    </vehicle>

    <vehicle id="53" depart="53.00" arrival="179.00">
        <route edges="85355912 85355911#0 85355911#1 30405356 5931612 30350450#0 30350450#1 30350450#2 4006702#0 31255203#0 -31241851#2 -31241851#1 -31241851#0 31241816#3 31241835#1 31241834#0"/>
    </vehicle>

    <vehicle id="54" depart="54.00" arrival="180.00">
        <route edges="-3998615#1 -3998615#0 3013106#2 4319352#1 44069041#0 25472134 30751813 -35842306#1 -35842306#0 -4900741 -4900739#2 4900739#2"/>
    </vehicle>

    <vehicle id="5" depart="5.00" arrival="184.00">
        <route edges="-31255203#0 -4006702#0 4319352#1 44069041#0 44069041#1 25472079 30405352 30350445 -33174302#1 -33174302#0 -32302591#5 -32302591#4 -32302591#3 -32302591#2 -32302591#1 -32302591#0 -125685391"/>
    </vehicle>

    <vehicle id="57" depart="57.00" arrival="184.00">
        <route edges="32302591#5 33174302#0 33174302#1 4686970#0 4686970#1 122161381 30350448 8364476 30350450#0 30350450#1 30350450#2 4006702#0 31255203#0 -31241851#2 -31241853#2 31241853#2"/>
    </vehicle>

    <vehicle id="140" depart="142.00" arrival="187.00">
        <route edges="8402997 -8402998#0 29900565#3"/>
    </vehicle>

    <vehicle id="38" depart="38.00" arrival="190.00">
        <route edges="113939242#1 113939244#1 113939244#2 -126606716 23339459 30405358#1 85355912 85355911#0 25472101 30405352 30350445 4686970#0 4686970#1"/>
    </vehicle>

    <vehicle id="46" depart="46.00" arrival="190.00">
        <route edges="-28613727#1 28613727#1 -94344940#0 28768072 -28613737 -4006702#0 -3013106#2 3998615#0 3998615#1 3998615#2 3998615#3 3998645#2 -3998645#2"/>
    </vehicle>

    <vehicle id="28" depart="28.00" arrival="192.00">
        <route edges="-31241853#1 31241853#1 -31241838#0 -31255203#1 -31255203#0 -4006702#0 4319352#1 44069041#0 44069041#1 25472079 30405352 30350445 -33174302#1 -33174302#0 -32270595 32270595"/>
    </vehicle>

    <vehicle id="27" depart="27.00" arrival="192.00">
        <route edges="31241848 31241851#0 31241851#1 31241851#2 -31255203#0 -4006702#0 -3013106#2 -3013106#1 -3013106#0 -3998612#2 -3998612#1 -3998612#0 3998613#0 3998613#1 3998613#2 -41973977 41973977"/>
    </vehicle>

    <vehicle id="37" depart="37.00" arrival="193.00">
        <route edges="4006687 32270595 33174302#0 33174302#1 4686970#0 4686970#1 122161381 30350448 8364476 30350450#0 30350450#1 30350450#2 4319353 4319349"/>
    </vehicle>

    <vehicle id="83" depart="83.00" arrival="193.00">
        <route edges="32302591#2 32302591#3 32302591#4 32302591#5 33174302#0 33174302#1 4686970#0 4686970#1 122161381 30350448 8364476 30350450#0 30350450#1 -3998643#2"/>
    </vehicle>

    <vehicle id="65" depart="65.00" arrival="193.00">
        <route edges="-32270592#1 -32270592#0 -32270593 4006674#0 4006674#1 4006674#2 4006674#3 4006674#4 8403001 29900561#0 29900561#1 8402997 -8402998#0 -29900565#2"/>
    </vehicle>

    <vehicle id="66" depart="66.00" arrival="195.00">
        <route edges="-26188722 35842306#1 4047446#0 4047446#1 25472079 30405352 30350445 -33174302#1 -33174302#0 -32270595 8402997 8402998#1 -9643180"/>
    </vehicle>

    <vehicle id="0" depart="0.00" arrival="195.00">
        <route edges="31241835#1 -31241835#1 -31241816#3 31241851#0 31241851#1 31241851#2 -31255203#0 -4006702#0 4319352#1 44069041#0 44069041#1 25472079 30405352 30350445 -33174302#1 -33174302#0 -32270595 -29900561#1 -29900561#0 -4006688#4 -4006688#3 10712013"/>
    </vehicle>

    <vehicle id="118" depart="118.00" arrival="198.00">
        <route edges="23350930 4900041#3 4900041#0 -4900043 -4006702#1 31255203#0 -31241851#2 -31241851#1 -31241851#0 31241816#3 31241835#1 31241834#0"/>
    </vehicle>

    <vehicle id="72" depart="72.00" arrival="199.00">
        <route edges="-4006691 29900565#1 29900565#2 29900565#3 -32302591#5 -32302591#4 -32302591#3 -32302591#2 -32302591#1 -32302591#0 -125685391"/>
    </vehicle>

    <vehicle id="89" depart="89.00" arrival="203.00">
        <route edges="-94344940#3 -94344940#2 -94344940#0 28768072 -28613737 -4006702#0 4319352#1 44069041#0"/>
    </vehicle>

    <vehicle id="159" depart="163.00" arrival="207.00">
        <route edges="-4006688#4 4006688#4 29900561#0 29900561#1 32270595 -32302591#5"/>
    </vehicle>

    <vehicle id="129" depart="129.00" arrival="210.00">
        <route edges="-31241816#1 31241816#1 31241851#0 31241851#1 31241851#2 -31255203#0 -4006702#0 -3013106#2 -3013106#1 -3013106#0"/>
    </vehicle>

    <vehicle id="138" depart="142.00" arrival="211.00">
        <route edges="4686970#1 122161381 30350448 30350449 4400949 31982182#0 4047241"/>
    </vehicle>

    <vehicle id="201" depart="201.00" arrival="213.00">
        <route edges="23350929 4900041#2 4900041#3 4900041#0 4900041#1"/>
    </vehicle>

    <vehicle id="133" depart="133.00" arrival="215.00">
        <route edges="-31401017#1 4006688#0 4006688#1 4006688#2 4006688#3 4006688#4 29900561#0 29900561#1 32270595 33174302#0 33174302#1"/>
    </vehicle>

    <vehicle id="98" depart="98.00" arrival="215.00">
        <route edges="122161381 30350448 30350449 25472079 30405352 30350445 -33174302#1 -33174302#0 -32270595 8402997 8402998#1 -9643180"/>
    </vehicle>

    <vehicle id="158" depart="158.00" arrival="215.00">
        <route edges="4319352#0 4006702#0 31255203#0 -31241851#2 -31241853#2 -31241853#1 31241853#1"/>
    </vehicle>

    <vehicle id="106" depart="106.00" arrival="219.00">
        <route edges="33174302#0 -33174302#0 -32270595 -29900561#1 -29900561#0 -4006688#4 -4006688#3 -4006688#2 -4006688#1 -4006688#0 -31401017#0 -29900567 -31401018 -4047532"/>
    </vehicle>

    <vehicle id="100" depart="100.00" arrival="220.00">
        <route edges="28613727#1 -94344940#0 28768072 -28613737 4006702#1 4006702#2 -28269598 -4006703#1 4006705#1 -4006705#1"/>
    </vehicle>

    <vehicle id="1" depart="1.00" arrival="221.00">
        <route edges="-28631632 28613727#1 -94344940#0 28768072 -28613737 -4006702#0 4319352#1 44069041#0 44069041#1 25472079 30405352 30350445 -33174302#1 -33174302#0 -32270595 8402997 8402998#1 8402998#2 29900564#1 29900564#2 -29900564#2"/>
    </vehicle>

    <vehicle id="67" depart="67.00" arrival="223.00">
        <route edges="31777493#0 31777493#1 35842306#0 35842306#1 4047446#0 4047446#1 25472079 30405352 30350445 -33174302#1 -33174302#0 -32270595 -29900561#1 -29900561#0 -4006688#4 -4006688#3 -4006688#2 -4006688#1 -4006688#0 31401017#1 31401017#2 4006693#0"/>
    </vehicle>

    <vehicle id="117" depart="117.00" arrival="223.00">
        <route edges="-4006724#2 -4006724#1 -4047378 10573414#1 3013106#0 3013106#1 3013106#2 4006702#0 31255203#0 -31241851#2 -31241851#1 -31241851#0 -31241816#1 31241816#1"/>
    </vehicle>

    <vehicle id="150" depart="151.00" arrival="225.00">
        <route edges="-4006688#4 4006688#4 -8403001 -4006674#4 23605600#1 4006675"/>
    </vehicle>

    <vehicle id="78" depart="78.00" arrival="225.00">
        <route edges="-4900739#2 4900739#2 4900741 35842306#0 35842306#1 4047446#0 4047446#1 25472079 30405352 30350445 -33174302#1 -33174302#0 -32270595 -29900561#1 -29900561#0 -8403001 -4006674#4 -4006674#3 -4006674#2 -4006674#1 -4006674#0 32270593 -32270593"/>
    </vehicle>

    <vehicle id="126" depart="126.00" arrival="227.00">
        <route edges="-4006724#2 4872369 4006725#1 -3998612#0 3998613#0 3998613#1 3998613#2 -31353573#1"/>
    </vehicle>

    <vehicle id="151" depart="151.00" arrival="227.00">
        <route edges="-4006693#1 -4006693#0 -31401017#2 -31401017#1 -31401017#0 -29900567 29900567"/>
    </vehicle>

    <vehicle id="160" depart="160.00" arrival="228.00">
        <route edges="29900561#1 -29900561#1 -29900561#0 -4006688#4 -4006688#3 -4006688#2 -4006688#1 -4006688#0 31401017#1 31401017#2"/>
    </vehicle>

    <vehicle id="103" depart="103.00" arrival="229.00">
        <route edges="-29900565#1 4006691 -29900564#2 8403007 23605595 -4006693#0 -31401017#2 -8402998#3"/>
    </vehicle>

    <vehicle id="125" depart="125.00" arrival="229.00">
        <route edges="8402998#0 -8402997 -29900561#1 -29900561#0 -8403001 -4006674#4 -4006674#3 4006674#3"/>
    </vehicle>

    <vehicle id="173" depart="173.00" arrival="230.00">
        <route edges="3998615#0 -3998615#0 -3013106#1 -3013106#0 -10573414#1"/>
    </vehicle>

    <vehicle id="13" depart="13.00" arrival="230.00">
        <route edges="-4006691 29900565#1 29900565#2 29900565#3 33174302#0 33174302#1 4686970#0 4686970#1 122161381 30350448 8364476 30350450#0 30350450#1 30350450#2 4006702#0 4006702#1 4006702#2 -23805514#1"/>
    </vehicle>

    <vehicle id="108" depart="108.00" arrival="233.00">
        <route edges="4686970#1 122161381 30350448 8364476 30350450#0 30350450#1 30350450#2 4006702#0 28613737 94344941 94344940#0 -28613727#1 -28613727#0 28613727#0"/>
    </vehicle>

    <vehicle id="10" depart="10.00" arrival="233.00">
        <route edges="-29900564#3 -29900564#2 -29900564#1 -8402998#2 -8402998#1 -8402997 32270595 33174302#0 33174302#1 4686970#0 4686970#1 122161381 30350448 8364476 30350450#0 30350450#1 30350450#2 4006702#0 4006702#1 4006702#2 -23805514#1 -23805514#0"/>
    </vehicle>

    <vehicle id="170" depart="173.00" arrival="236.00">
        <route edges="-32270595 32270595 33174302#0 33174302#1 31353573#0"/>
    </vehicle>

    <vehicle id="58" depart="58.00" arrival="237.00">
        <route edges="23360299 -5445204#1 113939244#2 -126606716 23339459 30405358#1 85355912 85355911#0 85355911#1 30405356 4400949 31982182#0 4047241 4797872"/>
    </vehicle>

    <vehicle id="193" depart="193.00" arrival="237.00">
        <route edges="31241835#1 -31241835#1 -31241816#3 31241851#0 31241851#1 31241851#2 -31255203#0 28613737 -28613737"/>
    </vehicle>

    <vehicle id="39" depart="39.00" arrival="238.00">
        <route edges="4006705#1 -4006705#1 4006703#1 28269598 -4006702#2 -4006702#1 -4006702#0 4319352#1 44069041#0 25472134 30751813 -35842306#1 -35842306#0 -4900741 4099309"/>
    </vehicle>

    <vehicle id="14" depart="14.00" arrival="238.00">
        <route edges="-4006693#1 -23605595 -8403007 -29900564#1 -8402998#2 -8402998#1 -8402997 32270595 33174302#0 33174302#1 4686970#0 4686970#1 122161381 30350448 8364476 30350450#0 30350450#1 30350450#2 4006702#0 28613737 94344941 94344940#0 94344940#2"/>
    </vehicle>

    <vehicle id="41" depart="41.00" arrival="241.00">
        <route edges="-31241834#1 31241848 31241851#0 31241851#1 31241851#2 -31255203#0 -4006702#0 4319352#1 44069041#0 44069041#1 25472079 30405352 30350445 -33174302#1 -33174302#0 -32302591#5 -32302591#4 -32302591#3 -4006684"/>
    </vehicle>

    <vehicle id="165" depart="165.00" arrival="241.00">
        <route edges="-31241848 31241848 31241851#0 31241851#1 31241851#2 -31255203#0 4006702#1 4900043 4900041#1 -23350929"/>
    </vehicle>

    <vehicle id="81" depart="81.00" arrival="242.00">
        <route edges="-31401017#1 4006688#0 4006688#1 4006688#2 4006688#3 4006688#4 29900561#0 29900561#1 32270595 33174302#0 33174302#1 4686970#0 25472257 -30357194 3998612#0 -4006725#1 -4872369"/>
    </vehicle>

    <vehicle id="112" depart="112.00" arrival="242.00">
        <route edges="-3998613#2 3998613#2 -31353573#1 -31353573#0 -33174302#1 -33174302#0 -32270595 -29900561#1 -29900561#0 -8403001 8403001"/>
    </vehicle>

    <vehicle id="30" depart="30.00" arrival="242.00">
        <route edges="4900043 4900041#1 4900041#2 4900041#3 4900041#0 -4900043 -4006702#1 -4006702#0 4319352#1 44069041#0 44069041#1 25472079 30405352 30350445 -33174302#1 -33174302#0 -32270595 8402997 8402998#1 8402998#2 29900564#1 29900564#2 -29900564#2"/>
    </vehicle>

    <vehicle id="169" depart="169.00" arrival="243.00">
        <route edges="-4006691 -29900565#0 -29900564#5 -29900564#4"/>
    </vehicle>

    <vehicle id="70" depart="70.00" arrival="243.00">
        <route edges="4006684 32302591#3 32302591#4 32302591#5 33174302#0 33174302#1 4686970#0 4686970#1 122161381 30350448 8364476 30350450#0 30350450#1 30350450#2 4006702#0 31255203#0 -31241851#2 -31241853#2 -31241853#1 -31241853#0"/>
    </vehicle>

    <vehicle id="192" depart="192.00" arrival="244.00">
        <route edges="-4006724#2 4006724#2 3998643#0 3998643#1"/>
    </vehicle>

    <vehicle id="79" depart="79.00" arrival="248.00">
        <route edges="-32302591#0 32302591#0 32302591#1 32302591#2 32302591#3 32302591#4 32302591#5 33174302#0 33174302#1 4686970#0 4686970#1 122161381 30350448 30350449 4400949 31982182#0 4047241 4797872 4797871 4006668 126606716 113939242#0"/>
    </vehicle>

    <vehicle id="11" depart="11.00" arrival="249.00">
        <route edges="-31241835#1 -31241816#3 31241851#0 31241851#1 31241851#2 -31255203#0 -4006702#0 4319352#1 44069041#0 44069041#1 25472079 30405352 30350445 -33174302#1 -33174302#0 -32270595 -29900561#1 -29900561#0 -4006688#4 -4006688#3 -4006688#2 -4006688#1 -4006688#0 -31401017#0 -29900567 -31401018 -4047532"/>
    </vehicle>

    <vehicle id="212" depart="212.00" arrival="249.00">
        <route edges="4006674#3 4006674#4 8403001 -4006688#4 4006688#4"/>
    </vehicle>

    <vehicle id="114" depart="114.00" arrival="252.00">
        <route edges="-23570844#2 23570844#2 10419402 -4006693#1 -4006693#0 -31401017#2 -31401017#1 4006688#0 4006688#1 4006688#2 4006688#3 10425131"/>
    </vehicle>

    <vehicle id="162" depart="164.00" arrival="254.00">
        <route edges="-31241851#2 31241851#2 -31255203#0 -4006702#0 -3013106#2 3998615#0 3998615#1 3998615#2"/>
    </vehicle>

    <vehicle id="167" depart="169.00" arrival="258.00">
        <route edges="31241816#1 31241851#0 31241851#1 31241851#2 -31255203#0 -4006702#0 -3013106#2 -3013106#1 -3013106#0 -10573414#1"/>
    </vehicle>

    <vehicle id="191" depart="191.00" arrival="258.00">
        <route edges="4900041#3 4900041#0 -4900043 -4006702#1 31255203#0 -31241851#2 -31241851#1 -31241851#0 31241816#3 31241835#1"/>
    </vehicle>

    <vehicle id="40" depart="40.00" arrival="258.00">
        <route edges="-10425128#1 10425128#1 -29900564#3 -29900564#2 -29900564#1 -8402998#2 -8402998#1 -8402997 32270595 33174302#0 33174302#1 4686970#0 4686970#1 122161381 30350448 8364476 30350450#0 30350450#1 30350450#2 4006702#0 28613737 94344941 94344940#0 94344940#2 -94344940#2"/>
    </vehicle>

    <vehicle id="74" depart="74.00" arrival="262.00">
        <route edges="3998612#2 3013106#0 3013106#1 3013106#2 4319352#1 44069041#0 44069041#1 25472079 30405352 30350445 -33174302#1 -33174302#0 -32270595 8402997 -8402998#0"/>
    </vehicle>

    <vehicle id="137" depart="137.00" arrival="265.00">
        <route edges="-3998613#2 3998613#2 -31353573#1 -31353573#0 -33174302#1 -33174302#0 -32270595 -29900561#1 -29900561#0 -8403001 -4006674#4"/>
    </vehicle>

    <vehicle id="178" depart="181.00" arrival="267.00">
        <route edges="-10425130 4006688#2 4006688#3 4006688#4 29900561#0 29900561#1 8402997 -8402998#0 8402998#0"/>
    </vehicle>

    <vehicle id="231" depart="231.00" arrival="269.00">
        <route edges="28613734 28613727#0 -28613727#0"/>
    </vehicle>

    <vehicle id="48" depart="48.00" arrival="270.00">
        <route edges="4006674#3 4006674#4 8403001 29900561#0 29900561#1 32270595 33174302#0 33174302#1 4686970#0 4686970#1 122161381 30350448 8364476 30350450#0 30350450#1 30350450#2 -3013106#2 -3013106#1 -3013107 3013107"/>
    </vehicle>

    <vehicle id="130" depart="130.00" arrival="271.00">
        <route edges="32271499 41973977 -3998613#2 -3998613#1 -3998613#0 3998612#0 3998612#1 3998612#2 3013106#0 3013106#1 3013106#2 4006702#0 28613737 94344941"/>
    </vehicle>

    <vehicle id="92" depart="94.00" arrival="272.00">
        <route edges="-31241838#0 -31255203#1 -31255203#0 -4006702#0 4319352#1 44069041#0 44069041#1 25472079 30405352 30350445 -33174302#1 -33174302#0 -32302591#5 -32302591#4 -32302591#3 -4006684"/>
    </vehicle>

    <vehicle id="124" depart="130.00" arrival="272.00">
        <route edges="31241855#1 31241853#1 -31241838#0 -31255203#1 -31255203#0 -4006702#0 4319352#1 44069041#0 25472134 30751813 -35842306#1 -35842306#0 -4900741 -4900739#2 4690348"/>
    </vehicle>

    <vehicle id="107" depart="107.00" arrival="276.00">
        <route edges="-23605600#1 4006674#4 8403001 29900561#0 29900561#1 32270595 33174302#0 33174302#1 4686970#0 25472257 -30357194 3998612#0 -4006725#1 -4006725#0"/>
    </vehicle>

    <vehicle id="99" depart="99.00" arrival="281.00">
        <route edges="-3998613#2 3998613#2 -31353573#1 -31353573#0 -33174302#1 -33174302#0 -32270595 -29900561#1 -29900561#0 -4006688#4 -4006688#3 -4006688#2 -4006688#1 -4006688#0 31401017#1 31401017#2 -31401017#2"/>
    </vehicle>

    <vehicle id="25" depart="25.00" arrival="285.00">
        <route edges="31720632#0 -31720632#0 -4006705#2 -4006705#1 4006703#1 28269598 -4006702#2 -4006702#1 -4006702#0 4319352#1 44069041#0 44069041#1 25472079 30405352 30350445 -33174302#1 -33174302#0 -32270595 -29900561#1 -29900561#0 -4006688#4 -4006688#3 -4006688#2 -4006688#1 -4006688#0 -31401017#0 -29900567 29900567"/>
    </vehicle>

    <vehicle id="185" depart="185.00" arrival="287.00">
        <route edges="-4006724#1 -4047378 10573414#1 3013106#0 3013106#1 3013106#2 4006702#0 31255203#0 -31241851#2 -31241851#1 -31241851#0 -31241816#1"/>
    </vehicle>

    <vehicle id="176" depart="176.00" arrival="287.00">
        <route edges="-4047378 10573414#1 3013106#0 3013106#1 3013106#2 4006702#0 31255203#0 -31241851#2 -31241851#1 -31241851#0 31241816#3 -31241835#0"/>
    </vehicle>

    <vehicle id="141" depart="144.00" arrival="287.00">
        <route edges="-32302591#2 32302591#2 32302591#3 32302591#4 32302591#5 33174302#0 33174302#1 4686970#0 4686970#1 122161381 30350448 8364476 30350450#0 30350450#1 30350450#2 4006702#0 31255203#0 31255203#1"/>
    </vehicle>

    <vehicle id="68" depart="68.00" arrival="288.00">
        <route edges="31241855#0 31241816#0 31241816#1 31241851#0 31241851#1 31241851#2 -31255203#0 -4006702#0 4319352#1 44069041#0 44069041#1 25472079 30405352 30350445 -33174302#1 -33174302#0 -32270595 -29900561#1 -29900561#0 -4006688#4 -4006688#3 -4006688#2 -4006688#1 -4006688#0 31401017#1 31401017#2 4006693#0"/>
    </vehicle>

    <vehicle id="265" depart="265.00" arrival="288.00">
        <route edges="31241853#1 31241853#2 -31241851#1 31261347"/>
    </vehicle>

    <vehicle id="215" depart="215.00" arrival="288.00">
        <route edges="-31241816#0 31241816#0 31241816#1 31241851#0 31241851#1 31241851#2 -31255203#0 28613737 94344941 94344940#0 94344940#2 -94344940#2"/>
    </vehicle>

    <vehicle id="122" depart="122.00" arrival="289.00">
        <route edges="29900567 31401017#0 4006688#0 4006688#1 4006688#2 4006688#3 4006688#4 29900561#0 29900561#1 32270595 33174302#0 33174302#1 4686970#0 4686970#1 122161381 30350448 8364476 30350450#0 -3998645#2 -3998645#1 3998645#1"/>
    </vehicle>
